<?xml version="1.0" ?> 
<!-- 
# vtk DataFile Version 3.0
-->
<VTKFile type="UnstructuredGrid" version="0.1" compressor="vtkZLibDataCompressor" byte_order="LittleEndian">
  <UnstructuredGrid>
    <FieldData>
      <DataArray type="Float64" Name="TIME" NumberOfTuples="1" format="ascii">
1.500000000000000e+00 
      </DataArray>
      <DataArray type="Float64" Name="tangent_stiffness_tensor_cmat" NumberOfTuples="1" NumberOfComponents="36" format="ascii">
1.111111111111111e+01 2.777777777777777e+00 2.777777777777779e+00 -2.004592112638972e-16 1.688731268734284e-18 -2.278818948483865e-16 2.777777777777777e+00 1.111111111111111e+01 2.777777777777779e+00 -8.174118979123088e-19 1.850419985882689e-16 -2.559093129306774e-17 2.777777777777776e+00 2.777777777777776e+00 1.111111111111128e+01 -1.384594827686180e-18 1.313702894895472e-16 -3.635210594988771e-16 -1.024532370296864e-16 3.548109707772134e-17 3.214470904616083e-18 4.166666666666666e+00 -8.104795699882136e-17 1.692058604604842e-17 2.841319609370881e-17 -1.719263505828669e-16 1.211531024181313e-16 -7.816304366764998e-17 4.166666666666718e+00 6.329758480753081e-17 -5.162552781249083e-16 1.504989648120826e-17 -6.200249367083749e-16 -3.289532850846031e-18 1.295709124622156e-16 4.166666666666717e+00 
      </DataArray>
    </FieldData>

    <Piece NumberOfPoints="216" NumberOfCells="27" >
      <Points>
        <DataArray type="Float64" NumberOfComponents="3" format="ascii">
-1.666666666665666e-01 1.666666666666666e-01 -1.666666666666168e-01
-1.666666666665992e-01 5.000000000000000e-01 -1.666666666665994e-01
-1.666666666666666e-01 5.000000000000000e-01 -5.000000000000000e-01
-1.666666666666667e-01 1.666666666666667e-01 -5.000000000000000e-01
-5.000000000000000e-01 1.666666666666667e-01 -1.666666666664732e-01
-5.000000000000000e-01 5.000000000000000e-01 -1.666666666666667e-01
-5.000000000000000e-01 5.000000000000000e-01 -5.000000000000000e-01
-5.000000000000000e-01 1.666666666666667e-01 -5.000000000000000e-01
-1.666666666665060e-01 -1.666666666666665e-01 -1.666666666666491e-01
-1.666666666665666e-01 1.666666666666666e-01 -1.666666666666168e-01
-1.666666666666667e-01 1.666666666666667e-01 -5.000000000000000e-01
-1.666666666666667e-01 -1.666666666666664e-01 -5.000000000000000e-01
-5.000000000000000e-01 -1.666666666665992e-01 -1.666666666665994e-01
-5.000000000000000e-01 1.666666666666667e-01 -1.666666666664732e-01
-5.000000000000000e-01 1.666666666666667e-01 -5.000000000000000e-01
-5.000000000000000e-01 -1.666666666666666e-01 -5.000000000000000e-01
-1.666666666664732e-01 -5.000000000000000e-01 -1.666666666666665e-01
-1.666666666665060e-01 -1.666666666666665e-01 -1.666666666666491e-01
-1.666666666666667e-01 -1.666666666666664e-01 -5.000000000000000e-01
-1.666666666666667e-01 -5.000000000000000e-01 -5.000000000000000e-01
-5.000000000000000e-01 -5.000000000000000e-01 -1.666666666666667e-01
-5.000000000000000e-01 -1.666666666665992e-01 -1.666666666665994e-01
-5.000000000000000e-01 -1.666666666666666e-01 -5.000000000000000e-01
-5.000000000000000e-01 -5.000000000000000e-01 -5.000000000000000e-01
-1.666666666665058e-01 1.666666666666665e-01 1.666666666669104e-01
-1.666666666664732e-01 5.000000000000000e-01 1.666666666669280e-01
-1.666666666665992e-01 5.000000000000000e-01 -1.666666666665994e-01
-1.666666666665666e-01 1.666666666666666e-01 -1.666666666666168e-01
-5.000000000000000e-01 1.666666666666667e-01 1.666666666669281e-01
-5.000000000000000e-01 5.000000000000000e-01 1.666666666666666e-01
-5.000000000000000e-01 5.000000000000000e-01 -1.666666666666667e-01
-5.000000000000000e-01 1.666666666666667e-01 -1.666666666664732e-01
-1.666666666665663e-01 -1.666666666666666e-01 1.666666666668778e-01
-1.666666666665058e-01 1.666666666666665e-01 1.666666666669104e-01
-1.666666666665666e-01 1.666666666666666e-01 -1.666666666666168e-01
-1.666666666665060e-01 -1.666666666666665e-01 -1.666666666666491e-01
-5.000000000000000e-01 -1.666666666664732e-01 1.666666666669280e-01
-5.000000000000000e-01 1.666666666666667e-01 1.666666666669281e-01
-5.000000000000000e-01 1.666666666666667e-01 -1.666666666664732e-01
-5.000000000000000e-01 -1.666666666665992e-01 -1.666666666665994e-01
-1.666666666665989e-01 -5.000000000000000e-01 1.666666666668602e-01
-1.666666666665663e-01 -1.666666666666666e-01 1.666666666668778e-01
-1.666666666665060e-01 -1.666666666666665e-01 -1.666666666666491e-01
-1.666666666664732e-01 -5.000000000000000e-01 -1.666666666666665e-01
-5.000000000000000e-01 -5.000000000000000e-01 1.666666666666666e-01
-5.000000000000000e-01 -1.666666666664732e-01 1.666666666669280e-01
-5.000000000000000e-01 -1.666666666665992e-01 -1.666666666665994e-01
-5.000000000000000e-01 -5.000000000000000e-01 -1.666666666666667e-01
-1.666666666666667e-01 1.666666666666664e-01 5.000000000000000e-01
-1.666666666666666e-01 5.000000000000000e-01 5.000000000000000e-01
-1.666666666664732e-01 5.000000000000000e-01 1.666666666669280e-01
-1.666666666665058e-01 1.666666666666665e-01 1.666666666669104e-01
-5.000000000000000e-01 1.666666666666667e-01 5.000000000000000e-01
-5.000000000000000e-01 5.000000000000000e-01 5.000000000000000e-01
-5.000000000000000e-01 5.000000000000000e-01 1.666666666666666e-01
-5.000000000000000e-01 1.666666666666667e-01 1.666666666669281e-01
-1.666666666666667e-01 -1.666666666666667e-01 5.000000000000000e-01
-1.666666666666667e-01 1.666666666666664e-01 5.000000000000000e-01
-1.666666666665058e-01 1.666666666666665e-01 1.666666666669104e-01
-1.666666666665663e-01 -1.666666666666666e-01 1.666666666668778e-01
-5.000000000000000e-01 -1.666666666666666e-01 5.000000000000000e-01
-5.000000000000000e-01 1.666666666666667e-01 5.000000000000000e-01
-5.000000000000000e-01 1.666666666666667e-01 1.666666666669281e-01
-5.000000000000000e-01 -1.666666666664732e-01 1.666666666669280e-01
-1.666666666666667e-01 -5.000000000000000e-01 5.000000000000000e-01
-1.666666666666667e-01 -1.666666666666667e-01 5.000000000000000e-01
-1.666666666665663e-01 -1.666666666666666e-01 1.666666666668778e-01
-1.666666666665989e-01 -5.000000000000000e-01 1.666666666668602e-01
-5.000000000000000e-01 -5.000000000000000e-01 5.000000000000000e-01
-5.000000000000000e-01 -1.666666666666666e-01 5.000000000000000e-01
-5.000000000000000e-01 -1.666666666664732e-01 1.666666666669280e-01
-5.000000000000000e-01 -5.000000000000000e-01 1.666666666666666e-01
1.666666666666665e-01 1.666666666666666e-01 -1.666666666665234e-01
1.666666666666667e-01 5.000000000000000e-01 -1.666666666664732e-01
1.666666666666667e-01 5.000000000000000e-01 -5.000000000000000e-01
1.666666666666665e-01 1.666666666666667e-01 -5.000000000000000e-01
-1.666666666665666e-01 1.666666666666666e-01 -1.666666666666168e-01
-1.666666666665992e-01 5.000000000000000e-01 -1.666666666665994e-01
-1.666666666666666e-01 5.000000000000000e-01 -5.000000000000000e-01
-1.666666666666667e-01 1.666666666666667e-01 -5.000000000000000e-01
1.666666666666664e-01 -1.666666666666665e-01 -1.666666666666166e-01
1.666666666666665e-01 1.666666666666666e-01 -1.666666666665234e-01
1.666666666666665e-01 1.666666666666667e-01 -5.000000000000000e-01
1.666666666666665e-01 -1.666666666666664e-01 -5.000000000000000e-01
-1.666666666665060e-01 -1.666666666666665e-01 -1.666666666666491e-01
-1.666666666665666e-01 1.666666666666666e-01 -1.666666666666168e-01
-1.666666666666667e-01 1.666666666666667e-01 -5.000000000000000e-01
-1.666666666666667e-01 -1.666666666666664e-01 -5.000000000000000e-01
1.666666666666664e-01 -5.000000000000000e-01 -1.666666666666667e-01
1.666666666666664e-01 -1.666666666666665e-01 -1.666666666666166e-01
1.666666666666665e-01 -1.666666666666664e-01 -5.000000000000000e-01
1.666666666666666e-01 -5.000000000000000e-01 -5.000000000000000e-01
-1.666666666664732e-01 -5.000000000000000e-01 -1.666666666666665e-01
-1.666666666665060e-01 -1.666666666666665e-01 -1.666666666666491e-01
-1.666666666666667e-01 -1.666666666666664e-01 -5.000000000000000e-01
-1.666666666666667e-01 -5.000000000000000e-01 -5.000000000000000e-01
1.666666666666665e-01 1.666666666666665e-01 1.666666666668779e-01
1.666666666666667e-01 5.000000000000000e-01 1.666666666669281e-01
1.666666666666667e-01 5.000000000000000e-01 -1.666666666664732e-01
1.666666666666665e-01 1.666666666666666e-01 -1.666666666665234e-01
-1.666666666665058e-01 1.666666666666665e-01 1.666666666669104e-01
-1.666666666664732e-01 5.000000000000000e-01 1.666666666669280e-01
-1.666666666665992e-01 5.000000000000000e-01 -1.666666666665994e-01
-1.666666666665666e-01 1.666666666666666e-01 -1.666666666666168e-01
1.666666666666665e-01 -1.666666666666666e-01 1.666666666667846e-01
1.666666666666665e-01 1.666666666666665e-01 1.666666666668779e-01
1.666666666666665e-01 1.666666666666666e-01 -1.666666666665234e-01
1.666666666666664e-01 -1.666666666666665e-01 -1.666666666666166e-01
-1.666666666665663e-01 -1.666666666666666e-01 1.666666666668778e-01
-1.666666666665058e-01 1.666666666666665e-01 1.666666666669104e-01
-1.666666666665666e-01 1.666666666666666e-01 -1.666666666666168e-01
-1.666666666665060e-01 -1.666666666666665e-01 -1.666666666666491e-01
1.666666666666667e-01 -5.000000000000000e-01 1.666666666667344e-01
1.666666666666665e-01 -1.666666666666666e-01 1.666666666667846e-01
1.666666666666664e-01 -1.666666666666665e-01 -1.666666666666166e-01
1.666666666666664e-01 -5.000000000000000e-01 -1.666666666666667e-01
-1.666666666665989e-01 -5.000000000000000e-01 1.666666666668602e-01
-1.666666666665663e-01 -1.666666666666666e-01 1.666666666668778e-01
-1.666666666665060e-01 -1.666666666666665e-01 -1.666666666666491e-01
-1.666666666664732e-01 -5.000000000000000e-01 -1.666666666666665e-01
1.666666666666665e-01 1.666666666666664e-01 5.000000000000000e-01
1.666666666666667e-01 5.000000000000000e-01 5.000000000000000e-01
1.666666666666667e-01 5.000000000000000e-01 1.666666666669281e-01
1.666666666666665e-01 1.666666666666665e-01 1.666666666668779e-01
-1.666666666666667e-01 1.666666666666664e-01 5.000000000000000e-01
-1.666666666666666e-01 5.000000000000000e-01 5.000000000000000e-01
-1.666666666664732e-01 5.000000000000000e-01 1.666666666669280e-01
-1.666666666665058e-01 1.666666666666665e-01 1.666666666669104e-01
1.666666666666665e-01 -1.666666666666667e-01 5.000000000000000e-01
1.666666666666665e-01 1.666666666666664e-01 5.000000000000000e-01
1.666666666666665e-01 1.666666666666665e-01 1.666666666668779e-01
1.666666666666665e-01 -1.666666666666666e-01 1.666666666667846e-01
-1.666666666666667e-01 -1.666666666666667e-01 5.000000000000000e-01
-1.666666666666667e-01 1.666666666666664e-01 5.000000000000000e-01
-1.666666666665058e-01 1.666666666666665e-01 1.666666666669104e-01
-1.666666666665663e-01 -1.666666666666666e-01 1.666666666668778e-01
1.666666666666666e-01 -5.000000000000000e-01 5.000000000000000e-01
1.666666666666665e-01 -1.666666666666667e-01 5.000000000000000e-01
1.666666666666665e-01 -1.666666666666666e-01 1.666666666667846e-01
1.666666666666667e-01 -5.000000000000000e-01 1.666666666667344e-01
-1.666666666666667e-01 -5.000000000000000e-01 5.000000000000000e-01
-1.666666666666667e-01 -1.666666666666667e-01 5.000000000000000e-01
-1.666666666665663e-01 -1.666666666666666e-01 1.666666666668778e-01
-1.666666666665989e-01 -5.000000000000000e-01 1.666666666668602e-01
5.000000000000000e-01 1.666666666666664e-01 -1.666666666666667e-01
5.000000000000000e-01 5.000000000000000e-01 -1.666666666666667e-01
5.000000000000000e-01 5.000000000000000e-01 -5.000000000000000e-01
5.000000000000000e-01 1.666666666666666e-01 -5.000000000000000e-01
1.666666666666665e-01 1.666666666666666e-01 -1.666666666665234e-01
1.666666666666667e-01 5.000000000000000e-01 -1.666666666664732e-01
1.666666666666667e-01 5.000000000000000e-01 -5.000000000000000e-01
1.666666666666665e-01 1.666666666666667e-01 -5.000000000000000e-01
5.000000000000000e-01 -1.666666666664732e-01 -1.666666666666665e-01
5.000000000000000e-01 1.666666666666664e-01 -1.666666666666667e-01
5.000000000000000e-01 1.666666666666666e-01 -5.000000000000000e-01
5.000000000000000e-01 -1.666666666666667e-01 -5.000000000000000e-01
1.666666666666664e-01 -1.666666666666665e-01 -1.666666666666166e-01
1.666666666666665e-01 1.666666666666666e-01 -1.666666666665234e-01
1.666666666666665e-01 1.666666666666667e-01 -5.000000000000000e-01
1.666666666666665e-01 -1.666666666666664e-01 -5.000000000000000e-01
5.000000000000000e-01 -5.000000000000000e-01 -1.666666666666667e-01
5.000000000000000e-01 -1.666666666664732e-01 -1.666666666666665e-01
5.000000000000000e-01 -1.666666666666667e-01 -5.000000000000000e-01
5.000000000000000e-01 -5.000000000000000e-01 -5.000000000000000e-01
1.666666666666664e-01 -5.000000000000000e-01 -1.666666666666667e-01
1.666666666666664e-01 -1.666666666666665e-01 -1.666666666666166e-01
1.666666666666665e-01 -1.666666666666664e-01 -5.000000000000000e-01
1.666666666666666e-01 -5.000000000000000e-01 -5.000000000000000e-01
5.000000000000000e-01 1.666666666666667e-01 1.666666666667344e-01
5.000000000000000e-01 5.000000000000000e-01 1.666666666666666e-01
5.000000000000000e-01 5.000000000000000e-01 -1.666666666666667e-01
5.000000000000000e-01 1.666666666666664e-01 -1.666666666666667e-01
1.666666666666665e-01 1.666666666666665e-01 1.666666666668779e-01
1.666666666666667e-01 5.000000000000000e-01 1.666666666669281e-01
1.666666666666667e-01 5.000000000000000e-01 -1.666666666664732e-01
1.666666666666665e-01 1.666666666666666e-01 -1.666666666665234e-01
5.000000000000000e-01 -1.666666666665989e-01 1.666666666668602e-01
5.000000000000000e-01 1.666666666666667e-01 1.666666666667344e-01
5.000000000000000e-01 1.666666666666664e-01 -1.666666666666667e-01
5.000000000000000e-01 -1.666666666664732e-01 -1.666666666666665e-01
1.666666666666665e-01 -1.666666666666666e-01 1.666666666667846e-01
1.666666666666665e-01 1.666666666666665e-01 1.666666666668779e-01
1.666666666666665e-01 1.666666666666666e-01 -1.666666666665234e-01
1.666666666666664e-01 -1.666666666666665e-01 -1.666666666666166e-01
5.000000000000000e-01 -5.000000000000000e-01 1.666666666666666e-01
5.000000000000000e-01 -1.666666666665989e-01 1.666666666668602e-01
5.000000000000000e-01 -1.666666666664732e-01 -1.666666666666665e-01
5.000000000000000e-01 -5.000000000000000e-01 -1.666666666666667e-01
1.666666666666667e-01 -5.000000000000000e-01 1.666666666667344e-01
1.666666666666665e-01 -1.666666666666666e-01 1.666666666667846e-01
1.666666666666664e-01 -1.666666666666665e-01 -1.666666666666166e-01
1.666666666666664e-01 -5.000000000000000e-01 -1.666666666666667e-01
5.000000000000000e-01 1.666666666666666e-01 5.000000000000000e-01
5.000000000000000e-01 5.000000000000000e-01 5.000000000000000e-01
5.000000000000000e-01 5.000000000000000e-01 1.666666666666666e-01
5.000000000000000e-01 1.666666666666667e-01 1.666666666667344e-01
1.666666666666665e-01 1.666666666666664e-01 5.000000000000000e-01
1.666666666666667e-01 5.000000000000000e-01 5.000000000000000e-01
1.666666666666667e-01 5.000000000000000e-01 1.666666666669281e-01
1.666666666666665e-01 1.666666666666665e-01 1.666666666668779e-01
5.000000000000000e-01 -1.666666666666667e-01 5.000000000000000e-01
5.000000000000000e-01 1.666666666666666e-01 5.000000000000000e-01
5.000000000000000e-01 1.666666666666667e-01 1.666666666667344e-01
5.000000000000000e-01 -1.666666666665989e-01 1.666666666668602e-01
1.666666666666665e-01 -1.666666666666667e-01 5.000000000000000e-01
1.666666666666665e-01 1.666666666666664e-01 5.000000000000000e-01
1.666666666666665e-01 1.666666666666665e-01 1.666666666668779e-01
1.666666666666665e-01 -1.666666666666666e-01 1.666666666667846e-01
5.000000000000000e-01 -5.000000000000000e-01 5.000000000000000e-01
5.000000000000000e-01 -1.666666666666667e-01 5.000000000000000e-01
5.000000000000000e-01 -1.666666666665989e-01 1.666666666668602e-01
5.000000000000000e-01 -5.000000000000000e-01 1.666666666666666e-01
1.666666666666666e-01 -5.000000000000000e-01 5.000000000000000e-01
1.666666666666665e-01 -1.666666666666667e-01 5.000000000000000e-01
1.666666666666665e-01 -1.666666666666666e-01 1.666666666667846e-01
1.666666666666667e-01 -5.000000000000000e-01 1.666666666667344e-01
        </DataArray>
      </Points>

      <Cells>
        <DataArray type="Int32" Name="connectivity" format="ascii">
0 1 2 3 4 5 6 7 8 9 10 11 12 13 14 15 16 17 18 19 20 21 22 23 24 25 26 27 28 29 30 31 32 33 34 35 36 37 38 39 40 41 42 43 44 45 46 47 48 49 50 51 52 53 54 55 56 57 58 59 60 61 62 63 64 65 66 67 68 69 70 71 72 73 74 75 76 77 78 79 80 81 82 83 84 85 86 87 88 89 90 91 92 93 94 95 96 97 98 99 100 101 102 103 104 105 106 107 108 109 110 111 112 113 114 115 116 117 118 119 120 121 122 123 124 125 126 127 128 129 130 131 132 133 134 135 136 137 138 139 140 141 142 143 144 145 146 147 148 149 150 151 152 153 154 155 156 157 158 159 160 161 162 163 164 165 166 167 168 169 170 171 172 173 174 175 176 177 178 179 180 181 182 183 184 185 186 187 188 189 190 191 192 193 194 195 196 197 198 199 200 201 202 203 204 205 206 207 208 209 210 211 212 213 214 215 
        </DataArray>
        <DataArray type="Int32" Name="offsets" format="ascii">
8 16 24 32 40 48 56 64 72 80 88 96 104 112 120 128 136 144 152 160 168 176 184 192 200 208 216 
        </DataArray>
        <DataArray type="UInt8" Name="types" format="ascii">
12 12 12 12 12 12 12 12 12 12 12 12 12 12 12 12 12 12 12 12 12 12 12 12 12 12 12 
        </DataArray>
      </Cells>

  <PointData>
        <DataArray type="Float64" Name="rve_elem_3_gp_ 0_displacement" NumberOfComponents="3" format="ascii">
3.724126511868831e-03 -3.724126511871132e-03 -1.565745553016720e-02
3.724126511868596e-03 -1.117237953561035e-02 -1.565745553015110e-02
3.724126511870106e-03 -1.117237953561042e-02 -4.697236659047230e-02
3.724126511870081e-03 -3.724126511870227e-03 -4.697236659047233e-02
1.117237953561019e-02 -3.724126511870209e-03 -1.565745553013932e-02
1.117237953561022e-02 -1.117237953561040e-02 -1.565745553015747e-02
1.117237953561023e-02 -1.117237953561047e-02 -4.697236659047235e-02
1.117237953561020e-02 -3.724126511870279e-03 -4.697236659047238e-02
3.724126511867439e-03 3.724126511871047e-03 -1.565745553017018e-02
3.724126511868831e-03 -3.724126511871132e-03 -1.565745553016720e-02
3.724126511870081e-03 -3.724126511870227e-03 -4.697236659047233e-02
3.724126511870053e-03 3.724126511869960e-03 -4.697236659047236e-02
1.117237953561017e-02 3.724126511868477e-03 -1.565745553015120e-02
1.117237953561019e-02 -3.724126511870209e-03 -1.565745553013932e-02
1.117237953561020e-02 -3.724126511870279e-03 -4.697236659047238e-02
1.117237953561017e-02 3.724126511869913e-03 -4.697236659047241e-02
3.724126511865697e-03 1.117237953561023e-02 -1.565745553015749e-02
3.724126511867439e-03 3.724126511871047e-03 -1.565745553017018e-02
3.724126511870053e-03 3.724126511869960e-03 -4.697236659047236e-02
3.724126511870025e-03 1.117237953561016e-02 -4.697236659047239e-02
1.117237953561014e-02 1.117237953561018e-02 -1.565745553015756e-02
1.117237953561017e-02 3.724126511868477e-03 -1.565745553015120e-02
1.117237953561017e-02 3.724126511869913e-03 -4.697236659047241e-02
1.117237953561014e-02 1.117237953561011e-02 -4.697236659047244e-02
3.724126511867485e-03 -3.724126511871070e-03 1.565745553019474e-02
3.724126511865776e-03 -1.117237953561028e-02 1.565745553018201e-02
3.724126511868596e-03 -1.117237953561035e-02 -1.565745553015110e-02
3.724126511868831e-03 -3.724126511871132e-03 -1.565745553016720e-02
1.117237953561019e-02 -3.724126511870140e-03 1.565745553018194e-02
1.117237953561022e-02 -1.117237953561033e-02 1.565745553015741e-02
1.117237953561022e-02 -1.117237953561040e-02 -1.565745553015747e-02
1.117237953561019e-02 -3.724126511870209e-03 -1.565745553013932e-02
3.724126511868792e-03 3.724126511871085e-03 1.565745553019161e-02
3.724126511867485e-03 -3.724126511871070e-03 1.565745553019474e-02
3.724126511868831e-03 -3.724126511871132e-03 -1.565745553016720e-02
3.724126511867439e-03 3.724126511871047e-03 -1.565745553017018e-02
1.117237953561016e-02 3.724126511865731e-03 1.565745553018191e-02
1.117237953561019e-02 -3.724126511870140e-03 1.565745553018194e-02
1.117237953561019e-02 -3.724126511870209e-03 -1.565745553013932e-02
1.117237953561017e-02 3.724126511868477e-03 -1.565745553015120e-02
3.724126511868501e-03 1.117237953561030e-02 1.565745553017556e-02
3.724126511868792e-03 3.724126511871085e-03 1.565745553019161e-02
3.724126511867439e-03 3.724126511871047e-03 -1.565745553017018e-02
3.724126511865697e-03 1.117237953561023e-02 -1.565745553015749e-02
1.117237953561013e-02 1.117237953561025e-02 1.565745553015732e-02
1.117237953561016e-02 3.724126511865731e-03 1.565745553018191e-02
1.117237953561017e-02 3.724126511868477e-03 -1.565745553015120e-02
1.117237953561014e-02 1.117237953561018e-02 -1.565745553015756e-02
3.724126511870067e-03 -3.724126511870012e-03 4.697236659047232e-02
3.724126511870092e-03 -1.117237953561021e-02 4.697236659047235e-02
3.724126511865776e-03 -1.117237953561028e-02 1.565745553018201e-02
3.724126511867485e-03 -3.724126511871070e-03 1.565745553019474e-02
1.117237953561018e-02 -3.724126511870070e-03 4.697236659047227e-02
1.117237953561021e-02 -1.117237953561026e-02 4.697236659047230e-02
1.117237953561022e-02 -1.117237953561033e-02 1.565745553015741e-02
1.117237953561019e-02 -3.724126511870140e-03 1.565745553018194e-02
3.724126511870039e-03 3.724126511870176e-03 4.697236659047229e-02
3.724126511870067e-03 -3.724126511870012e-03 4.697236659047232e-02
3.724126511867485e-03 -3.724126511871070e-03 1.565745553019474e-02
3.724126511868792e-03 3.724126511871085e-03 1.565745553019161e-02
1.117237953561016e-02 3.724126511870122e-03 4.697236659047224e-02
1.117237953561018e-02 -3.724126511870070e-03 4.697236659047227e-02
1.117237953561019e-02 -3.724126511870140e-03 1.565745553018194e-02
1.117237953561016e-02 3.724126511865731e-03 1.565745553018191e-02
3.724126511870012e-03 1.117237953561037e-02 4.697236659047226e-02
3.724126511870039e-03 3.724126511870176e-03 4.697236659047229e-02
3.724126511868792e-03 3.724126511871085e-03 1.565745553019161e-02
3.724126511868501e-03 1.117237953561030e-02 1.565745553017556e-02
1.117237953561013e-02 1.117237953561031e-02 4.697236659047221e-02
1.117237953561016e-02 3.724126511870122e-03 4.697236659047224e-02
1.117237953561016e-02 3.724126511865731e-03 1.565745553018191e-02
1.117237953561013e-02 1.117237953561025e-02 1.565745553015732e-02
-3.724126511871027e-03 -3.724126511871060e-03 -1.565745553015836e-02
-3.724126511870016e-03 -1.117237953561030e-02 -1.565745553013920e-02
-3.724126511870012e-03 -1.117237953561037e-02 -4.697236659047226e-02
-3.724126511870035e-03 -3.724126511870176e-03 -4.697236659047229e-02
3.724126511868831e-03 -3.724126511871132e-03 -1.565745553016720e-02
3.724126511868596e-03 -1.117237953561035e-02 -1.565745553015110e-02
3.724126511870106e-03 -1.117237953561042e-02 -4.697236659047230e-02
3.724126511870081e-03 -3.724126511870227e-03 -4.697236659047233e-02
-3.724126511871030e-03 3.724126511871077e-03 -1.565745553016713e-02
-3.724126511871027e-03 -3.724126511871060e-03 -1.565745553015836e-02
-3.724126511870035e-03 -3.724126511870176e-03 -4.697236659047229e-02
-3.724126511870062e-03 3.724126511870012e-03 -4.697236659047232e-02
3.724126511867439e-03 3.724126511871047e-03 -1.565745553017018e-02
3.724126511868831e-03 -3.724126511871132e-03 -1.565745553016720e-02
3.724126511870081e-03 -3.724126511870227e-03 -4.697236659047233e-02
3.724126511870053e-03 3.724126511869960e-03 -4.697236659047236e-02
-3.724126511870093e-03 1.117237953561028e-02 -1.565745553015746e-02
-3.724126511871030e-03 3.724126511871077e-03 -1.565745553016713e-02
-3.724126511870062e-03 3.724126511870012e-03 -4.697236659047232e-02
-3.724126511870092e-03 1.117237953561021e-02 -4.697236659047235e-02
3.724126511865697e-03 1.117237953561023e-02 -1.565745553015749e-02
3.724126511867439e-03 3.724126511871047e-03 -1.565745553017018e-02
3.724126511870053e-03 3.724126511869960e-03 -4.697236659047236e-02
3.724126511870025e-03 1.117237953561016e-02 -4.697236659047239e-02
-3.724126511871014e-03 -3.724126511871024e-03 1.565745553019176e-02
-3.724126511870021e-03 -1.117237953561023e-02 1.565745553018207e-02
-3.724126511870016e-03 -1.117237953561030e-02 -1.565745553013920e-02
-3.724126511871027e-03 -3.724126511871060e-03 -1.565745553015836e-02
3.724126511867485e-03 -3.724126511871070e-03 1.565745553019474e-02
3.724126511865776e-03 -1.117237953561028e-02 1.565745553018201e-02
3.724126511868596e-03 -1.117237953561035e-02 -1.565745553015110e-02
3.724126511868831e-03 -3.724126511871132e-03 -1.565745553016720e-02
-3.724126511871036e-03 3.724126511871158e-03 1.565745553018295e-02
-3.724126511871014e-03 -3.724126511871024e-03 1.565745553019176e-02
-3.724126511871027e-03 -3.724126511871060e-03 -1.565745553015836e-02
-3.724126511871030e-03 3.724126511871077e-03 -1.565745553016713e-02
3.724126511868792e-03 3.724126511871085e-03 1.565745553019161e-02
3.724126511867485e-03 -3.724126511871070e-03 1.565745553019474e-02
3.724126511868831e-03 -3.724126511871132e-03 -1.565745553016720e-02
3.724126511867439e-03 3.724126511871047e-03 -1.565745553017018e-02
-3.724126511870104e-03 1.117237953561035e-02 1.565745553016379e-02
-3.724126511871036e-03 3.724126511871158e-03 1.565745553018295e-02
-3.724126511871030e-03 3.724126511871077e-03 -1.565745553016713e-02
-3.724126511870093e-03 1.117237953561028e-02 -1.565745553015746e-02
3.724126511868501e-03 1.117237953561030e-02 1.565745553017556e-02
3.724126511868792e-03 3.724126511871085e-03 1.565745553019161e-02
3.724126511867439e-03 3.724126511871047e-03 -1.565745553017018e-02
3.724126511865697e-03 1.117237953561023e-02 -1.565745553015749e-02
-3.724126511870048e-03 -3.724126511869960e-03 4.697236659047236e-02
-3.724126511870025e-03 -1.117237953561016e-02 4.697236659047239e-02
-3.724126511870021e-03 -1.117237953561023e-02 1.565745553018207e-02
-3.724126511871014e-03 -3.724126511871024e-03 1.565745553019176e-02
3.724126511870067e-03 -3.724126511870012e-03 4.697236659047232e-02
3.724126511870092e-03 -1.117237953561021e-02 4.697236659047235e-02
3.724126511865776e-03 -1.117237953561028e-02 1.565745553018201e-02
3.724126511867485e-03 -3.724126511871070e-03 1.565745553019474e-02
-3.724126511870076e-03 3.724126511870227e-03 4.697236659047233e-02
-3.724126511870048e-03 -3.724126511869960e-03 4.697236659047236e-02
-3.724126511871014e-03 -3.724126511871024e-03 1.565745553019176e-02
-3.724126511871036e-03 3.724126511871158e-03 1.565745553018295e-02
3.724126511870039e-03 3.724126511870176e-03 4.697236659047229e-02
3.724126511870067e-03 -3.724126511870012e-03 4.697236659047232e-02
3.724126511867485e-03 -3.724126511871070e-03 1.565745553019474e-02
3.724126511868792e-03 3.724126511871085e-03 1.565745553019161e-02
-3.724126511870106e-03 1.117237953561042e-02 4.697236659047230e-02
-3.724126511870076e-03 3.724126511870227e-03 4.697236659047233e-02
-3.724126511871036e-03 3.724126511871158e-03 1.565745553018295e-02
-3.724126511870104e-03 1.117237953561035e-02 1.565745553016379e-02
3.724126511870012e-03 1.117237953561037e-02 4.697236659047226e-02
3.724126511870039e-03 3.724126511870176e-03 4.697236659047229e-02
3.724126511868792e-03 3.724126511871085e-03 1.565745553019161e-02
3.724126511868501e-03 1.117237953561030e-02 1.565745553017556e-02
-1.117237953561016e-02 -3.724126511870048e-03 -1.565745553015736e-02
-1.117237953561013e-02 -1.117237953561025e-02 -1.565745553015734e-02
-1.117237953561013e-02 -1.117237953561031e-02 -4.697236659047221e-02
-1.117237953561016e-02 -3.724126511870122e-03 -4.697236659047224e-02
-3.724126511871027e-03 -3.724126511871060e-03 -1.565745553015836e-02
-3.724126511870016e-03 -1.117237953561030e-02 -1.565745553013920e-02
-3.724126511870012e-03 -1.117237953561037e-02 -4.697236659047226e-02
-3.724126511870035e-03 -3.724126511870176e-03 -4.697236659047229e-02
-1.117237953561019e-02 3.724126511865816e-03 -1.565745553015737e-02
-1.117237953561016e-02 -3.724126511870048e-03 -1.565745553015736e-02
-1.117237953561016e-02 -3.724126511870122e-03 -4.697236659047224e-02
-1.117237953561018e-02 3.724126511870070e-03 -4.697236659047227e-02
-3.724126511871030e-03 3.724126511871077e-03 -1.565745553016713e-02
-3.724126511871027e-03 -3.724126511871060e-03 -1.565745553015836e-02
-3.724126511870035e-03 -3.724126511870176e-03 -4.697236659047229e-02
-3.724126511870062e-03 3.724126511870012e-03 -4.697236659047232e-02
-1.117237953561022e-02 1.117237953561033e-02 -1.565745553015742e-02
-1.117237953561019e-02 3.724126511865816e-03 -1.565745553015737e-02
-1.117237953561018e-02 3.724126511870070e-03 -4.697236659047227e-02
-1.117237953561021e-02 1.117237953561026e-02 -4.697236659047230e-02
-3.724126511870093e-03 1.117237953561028e-02 -1.565745553015746e-02
-3.724126511871030e-03 3.724126511871077e-03 -1.565745553016713e-02
-3.724126511870062e-03 3.724126511870012e-03 -4.697236659047232e-02
-3.724126511870092e-03 1.117237953561021e-02 -4.697236659047235e-02
-1.117237953561017e-02 -3.724126511869985e-03 1.565745553016389e-02
-1.117237953561014e-02 -1.117237953561018e-02 1.565745553015755e-02
-1.117237953561013e-02 -1.117237953561025e-02 -1.565745553015734e-02
-1.117237953561016e-02 -3.724126511870048e-03 -1.565745553015736e-02
-3.724126511871014e-03 -3.724126511871024e-03 1.565745553019176e-02
-3.724126511870021e-03 -1.117237953561023e-02 1.565745553018207e-02
-3.724126511870016e-03 -1.117237953561030e-02 -1.565745553013920e-02
-3.724126511871027e-03 -3.724126511871060e-03 -1.565745553015836e-02
-1.117237953561019e-02 3.724126511868694e-03 1.565745553017568e-02
-1.117237953561017e-02 -3.724126511869985e-03 1.565745553016389e-02
-1.117237953561016e-02 -3.724126511870048e-03 -1.565745553015736e-02
-1.117237953561019e-02 3.724126511865816e-03 -1.565745553015737e-02
-3.724126511871036e-03 3.724126511871158e-03 1.565745553018295e-02
-3.724126511871014e-03 -3.724126511871024e-03 1.565745553019176e-02
-3.724126511871027e-03 -3.724126511871060e-03 -1.565745553015836e-02
-3.724126511871030e-03 3.724126511871077e-03 -1.565745553016713e-02
-1.117237953561022e-02 1.117237953561040e-02 1.565745553015746e-02
-1.117237953561019e-02 3.724126511868694e-03 1.565745553017568e-02