<?xml version="1.0" ?> 
<!-- 
# vtk DataFile Version 3.0
-->
<VTKFile type="UnstructuredGrid" version="0.1" compressor="vtkZLibDataCompressor" byte_order="LittleEndian">
  <UnstructuredGrid>
    <FieldData>
      <DataArray type="Float64" Name="TIME" NumberOfTuples="1" format="ascii">
1.000000000000000e+00 
      </DataArray>
      <DataArray type="Float64" Name="tangent_stiffness_tensor_cmat" NumberOfTuples="1" NumberOfComponents="36" format="ascii">
1.111111111111094e+01 2.777777777777779e+00 2.777777777777778e+00 -1.292787848305860e-17 -1.866774237402405e-17 -2.459460986758580e-16 2.777777777777779e+00 1.111111111111094e+01 2.777777777777779e+00 1.866626203771971e-16 -1.241066274725704e-16 -2.233710849751404e-17 2.777777777777779e+00 2.777777777777779e+00 1.111111111112563e+01 -9.780410767294714e-18 1.356634267358261e-16 -4.204970086724137e-16 5.479032648738553e-17 -9.490254765780655e-17 7.558309599714662e-17 4.166666666666581e+00 5.954014772264839e-17 -4.727203517688117e-17 -7.575402205757665e-18 4.315359744420320e-16 4.038765908348886e-17 9.612708772843279e-18 4.166666666670872e+00 1.485345034517844e-16 2.919518695152394e-18 -3.242538839616449e-17 -4.125857526685318e-16 -5.542714357521781e-17 6.982494626642395e-17 4.166666666670872e+00 
      </DataArray>
    </FieldData>

    <Piece NumberOfPoints="216" NumberOfCells="27" >
      <Points>
        <DataArray type="Float64" NumberOfComponents="3" format="ascii">
-1.666666666665666e-01 1.666666666666666e-01 -1.666666666666168e-01
-1.666666666665992e-01 5.000000000000000e-01 -1.666666666665994e-01
-1.666666666666666e-01 5.000000000000000e-01 -5.000000000000000e-01
-1.666666666666667e-01 1.666666666666667e-01 -5.000000000000000e-01
-5.000000000000000e-01 1.666666666666667e-01 -1.666666666664732e-01
-5.000000000000000e-01 5.000000000000000e-01 -1.666666666666667e-01
-5.000000000000000e-01 5.000000000000000e-01 -5.000000000000000e-01
-5.000000000000000e-01 1.666666666666667e-01 -5.000000000000000e-01
-1.666666666665060e-01 -1.666666666666665e-01 -1.666666666666491e-01
-1.666666666665666e-01 1.666666666666666e-01 -1.666666666666168e-01
-1.666666666666667e-01 1.666666666666667e-01 -5.000000000000000e-01
-1.666666666666667e-01 -1.666666666666664e-01 -5.000000000000000e-01
-5.000000000000000e-01 -1.666666666665992e-01 -1.666666666665994e-01
-5.000000000000000e-01 1.666666666666667e-01 -1.666666666664732e-01
-5.000000000000000e-01 1.666666666666667e-01 -5.000000000000000e-01
-5.000000000000000e-01 -1.666666666666666e-01 -5.000000000000000e-01
-1.666666666664732e-01 -5.000000000000000e-01 -1.666666666666665e-01
-1.666666666665060e-01 -1.666666666666665e-01 -1.666666666666491e-01
-1.666666666666667e-01 -1.666666666666664e-01 -5.000000000000000e-01
-1.666666666666667e-01 -5.000000000000000e-01 -5.000000000000000e-01
-5.000000000000000e-01 -5.000000000000000e-01 -1.666666666666667e-01
-5.000000000000000e-01 -1.666666666665992e-01 -1.666666666665994e-01
-5.000000000000000e-01 -1.666666666666666e-01 -5.000000000000000e-01
-5.000000000000000e-01 -5.000000000000000e-01 -5.000000000000000e-01
-1.666666666665058e-01 1.666666666666665e-01 1.666666666669104e-01
-1.666666666664732e-01 5.000000000000000e-01 1.666666666669280e-01
-1.666666666665992e-01 5.000000000000000e-01 -1.666666666665994e-01
-1.666666666665666e-01 1.666666666666666e-01 -1.666666666666168e-01
-5.000000000000000e-01 1.666666666666667e-01 1.666666666669281e-01
-5.000000000000000e-01 5.000000000000000e-01 1.666666666666666e-01
-5.000000000000000e-01 5.000000000000000e-01 -1.666666666666667e-01
-5.000000000000000e-01 1.666666666666667e-01 -1.666666666664732e-01
-1.666666666665663e-01 -1.666666666666666e-01 1.666666666668778e-01
-1.666666666665058e-01 1.666666666666665e-01 1.666666666669104e-01
-1.666666666665666e-01 1.666666666666666e-01 -1.666666666666168e-01
-1.666666666665060e-01 -1.666666666666665e-01 -1.666666666666491e-01
-5.000000000000000e-01 -1.666666666664732e-01 1.666666666669280e-01
-5.000000000000000e-01 1.666666666666667e-01 1.666666666669281e-01
-5.000000000000000e-01 1.666666666666667e-01 -1.666666666664732e-01
-5.000000000000000e-01 -1.666666666665992e-01 -1.666666666665994e-01
-1.666666666665989e-01 -5.000000000000000e-01 1.666666666668602e-01
-1.666666666665663e-01 -1.666666666666666e-01 1.666666666668778e-01
-1.666666666665060e-01 -1.666666666666665e-01 -1.666666666666491e-01
-1.666666666664732e-01 -5.000000000000000e-01 -1.666666666666665e-01
-5.000000000000000e-01 -5.000000000000000e-01 1.666666666666666e-01
-5.000000000000000e-01 -1.666666666664732e-01 1.666666666669280e-01
-5.000000000000000e-01 -1.666666666665992e-01 -1.666666666665994e-01
-5.000000000000000e-01 -5.000000000000000e-01 -1.666666666666667e-01
-1.666666666666667e-01 1.666666666666664e-01 5.000000000000000e-01
-1.666666666666666e-01 5.000000000000000e-01 5.000000000000000e-01
-1.666666666664732e-01 5.000000000000000e-01 1.666666666669280e-01
-1.666666666665058e-01 1.666666666666665e-01 1.666666666669104e-01
-5.000000000000000e-01 1.666666666666667e-01 5.000000000000000e-01
-5.000000000000000e-01 5.000000000000000e-01 5.000000000000000e-01
-5.000000000000000e-01 5.000000000000000e-01 1.666666666666666e-01
-5.000000000000000e-01 1.666666666666667e-01 1.666666666669281e-01
-1.666666666666667e-01 -1.666666666666667e-01 5.000000000000000e-01
-1.666666666666667e-01 1.666666666666664e-01 5.000000000000000e-01
-1.666666666665058e-01 1.666666666666665e-01 1.666666666669104e-01
-1.666666666665663e-01 -1.666666666666666e-01 1.666666666668778e-01
-5.000000000000000e-01 -1.666666666666666e-01 5.000000000000000e-01
-5.000000000000000e-01 1.666666666666667e-01 5.000000000000000e-01
-5.000000000000000e-01 1.666666666666667e-01 1.666666666669281e-01
-5.000000000000000e-01 -1.666666666664732e-01 1.666666666669280e-01
-1.666666666666667e-01 -5.000000000000000e-01 5.000000000000000e-01
-1.666666666666667e-01 -1.666666666666667e-01 5.000000000000000e-01
-1.666666666665663e-01 -1.666666666666666e-01 1.666666666668778e-01
-1.666666666665989e-01 -5.000000000000000e-01 1.666666666668602e-01
-5.000000000000000e-01 -5.000000000000000e-01 5.000000000000000e-01
-5.000000000000000e-01 -1.666666666666666e-01 5.000000000000000e-01
-5.000000000000000e-01 -1.666666666664732e-01 1.666666666669280e-01
-5.000000000000000e-01 -5.000000000000000e-01 1.666666666666666e-01
1.666666666666665e-01 1.666666666666666e-01 -1.666666666665234e-01
1.666666666666667e-01 5.000000000000000e-01 -1.666666666664732e-01
1.666666666666667e-01 5.000000000000000e-01 -5.000000000000000e-01
1.666666666666665e-01 1.666666666666667e-01 -5.000000000000000e-01
-1.666666666665666e-01 1.666666666666666e-01 -1.666666666666168e-01
-1.666666666665992e-01 5.000000000000000e-01 -1.666666666665994e-01
-1.666666666666666e-01 5.000000000000000e-01 -5.000000000000000e-01
-1.666666666666667e-01 1.666666666666667e-01 -5.000000000000000e-01
1.666666666666664e-01 -1.666666666666665e-01 -1.666666666666166e-01
1.666666666666665e-01 1.666666666666666e-01 -1.666666666665234e-01
1.666666666666665e-01 1.666666666666667e-01 -5.000000000000000e-01
1.666666666666665e-01 -1.666666666666664e-01 -5.000000000000000e-01
-1.666666666665060e-01 -1.666666666666665e-01 -1.666666666666491e-01
-1.666666666665666e-01 1.666666666666666e-01 -1.666666666666168e-01
-1.666666666666667e-01 1.666666666666667e-01 -5.000000000000000e-01
-1.666666666666667e-01 -1.666666666666664e-01 -5.000000000000000e-01
1.666666666666664e-01 -5.000000000000000e-01 -1.666666666666667e-01
1.666666666666664e-01 -1.666666666666665e-01 -1.666666666666166e-01
1.666666666666665e-01 -1.666666666666664e-01 -5.000000000000000e-01
1.666666666666666e-01 -5.000000000000000e-01 -5.000000000000000e-01
-1.666666666664732e-01 -5.000000000000000e-01 -1.666666666666665e-01
-1.666666666665060e-01 -1.666666666666665e-01 -1.666666666666491e-01
-1.666666666666667e-01 -1.666666666666664e-01 -5.000000000000000e-01
-1.666666666666667e-01 -5.000000000000000e-01 -5.000000000000000e-01
1.666666666666665e-01 1.666666666666665e-01 1.666666666668779e-01
1.666666666666667e-01 5.000000000000000e-01 1.666666666669281e-01
1.666666666666667e-01 5.000000000000000e-01 -1.666666666664732e-01
1.666666666666665e-01 1.666666666666666e-01 -1.666666666665234e-01
-1.666666666665058e-01 1.666666666666665e-01 1.666666666669104e-01
-1.666666666664732e-01 5.000000000000000e-01 1.666666666669280e-01
-1.666666666665992e-01 5.000000000000000e-01 -1.666666666665994e-01
-1.666666666665666e-01 1.666666666666666e-01 -1.666666666666168e-01
1.666666666666665e-01 -1.666666666666666e-01 1.666666666667846e-01
1.666666666666665e-01 1.666666666666665e-01 1.666666666668779e-01
1.666666666666665e-01 1.666666666666666e-01 -1.666666666665234e-01
1.666666666666664e-01 -1.666666666666665e-01 -1.666666666666166e-01
-1.666666666665663e-01 -1.666666666666666e-01 1.666666666668778e-01
-1.666666666665058e-01 1.666666666666665e-01 1.666666666669104e-01
-1.666666666665666e-01 1.666666666666666e-01 -1.666666666666168e-01
-1.666666666665060e-01 -1.666666666666665e-01 -1.666666666666491e-01
1.666666666666667e-01 -5.000000000000000e-01 1.666666666667344e-01
1.666666666666665e-01 -1.666666666666666e-01 1.666666666667846e-01
1.666666666666664e-01 -1.666666666666665e-01 -1.666666666666166e-01
1.666666666666664e-01 -5.000000000000000e-01 -1.666666666666667e-01
-1.666666666665989e-01 -5.000000000000000e-01 1.666666666668602e-01
-1.666666666665663e-01 -1.666666666666666e-01 1.666666666668778e-01
-1.666666666665060e-01 -1.666666666666665e-01 -1.666666666666491e-01
-1.666666666664732e-01 -5.000000000000000e-01 -1.666666666666665e-01
1.666666666666665e-01 1.666666666666664e-01 5.000000000000000e-01
1.666666666666667e-01 5.000000000000000e-01 5.000000000000000e-01
1.666666666666667e-01 5.000000000000000e-01 1.666666666669281e-01
1.666666666666665e-01 1.666666666666665e-01 1.666666666668779e-01
-1.666666666666667e-01 1.666666666666664e-01 5.000000000000000e-01
-1.666666666666666e-01 5.000000000000000e-01 5.000000000000000e-01
-1.666666666664732e-01 5.000000000000000e-01 1.666666666669280e-01
-1.666666666665058e-01 1.666666666666665e-01 1.666666666669104e-01
1.666666666666665e-01 -1.666666666666667e-01 5.000000000000000e-01
1.666666666666665e-01 1.666666666666664e-01 5.000000000000000e-01
1.666666666666665e-01 1.666666666666665e-01 1.666666666668779e-01
1.666666666666665e-01 -1.666666666666666e-01 1.666666666667846e-01
-1.666666666666667e-01 -1.666666666666667e-01 5.000000000000000e-01
-1.666666666666667e-01 1.666666666666664e-01 5.000000000000000e-01
-1.666666666665058e-01 1.666666666666665e-01 1.666666666669104e-01
-1.666666666665663e-01 -1.666666666666666e-01 1.666666666668778e-01
1.666666666666666e-01 -5.000000000000000e-01 5.000000000000000e-01
1.666666666666665e-01 -1.666666666666667e-01 5.000000000000000e-01
1.666666666666665e-01 -1.666666666666666e-01 1.666666666667846e-01
1.666666666666667e-01 -5.000000000000000e-01 1.666666666667344e-01
-1.666666666666667e-01 -5.000000000000000e-01 5.000000000000000e-01
-1.666666666666667e-01 -1.666666666666667e-01 5.000000000000000e-01
-1.666666666665663e-01 -1.666666666666666e-01 1.666666666668778e-01
-1.666666666665989e-01 -5.000000000000000e-01 1.666666666668602e-01
5.000000000000000e-01 1.666666666666664e-01 -1.666666666666667e-01
5.000000000000000e-01 5.000000000000000e-01 -1.666666666666667e-01
5.000000000000000e-01 5.000000000000000e-01 -5.000000000000000e-01
5.000000000000000e-01 1.666666666666666e-01 -5.000000000000000e-01
1.666666666666665e-01 1.666666666666666e-01 -1.666666666665234e-01
1.666666666666667e-01 5.000000000000000e-01 -1.666666666664732e-01
1.666666666666667e-01 5.000000000000000e-01 -5.000000000000000e-01
1.666666666666665e-01 1.666666666666667e-01 -5.000000000000000e-01
5.000000000000000e-01 -1.666666666664732e-01 -1.666666666666665e-01
5.000000000000000e-01 1.666666666666664e-01 -1.666666666666667e-01
5.000000000000000e-01 1.666666666666666e-01 -5.000000000000000e-01
5.000000000000000e-01 -1.666666666666667e-01 -5.000000000000000e-01
1.666666666666664e-01 -1.666666666666665e-01 -1.666666666666166e-01
1.666666666666665e-01 1.666666666666666e-01 -1.666666666665234e-01
1.666666666666665e-01 1.666666666666667e-01 -5.000000000000000e-01
1.666666666666665e-01 -1.666666666666664e-01 -5.000000000000000e-01
5.000000000000000e-01 -5.000000000000000e-01 -1.666666666666667e-01
5.000000000000000e-01 -1.666666666664732e-01 -1.666666666666665e-01
5.000000000000000e-01 -1.666666666666667e-01 -5.000000000000000e-01
5.000000000000000e-01 -5.000000000000000e-01 -5.000000000000000e-01
1.666666666666664e-01 -5.000000000000000e-01 -1.666666666666667e-01
1.666666666666664e-01 -1.666666666666665e-01 -1.666666666666166e-01
1.666666666666665e-01 -1.666666666666664e-01 -5.000000000000000e-01
1.666666666666666e-01 -5.000000000000000e-01 -5.000000000000000e-01
5.000000000000000e-01 1.666666666666667e-01 1.666666666667344e-01
5.000000000000000e-01 5.000000000000000e-01 1.666666666666666e-01
5.000000000000000e-01 5.000000000000000e-01 -1.666666666666667e-01
5.000000000000000e-01 1.666666666666664e-01 -1.666666666666667e-01
1.666666666666665e-01 1.666666666666665e-01 1.666666666668779e-01
1.666666666666667e-01 5.000000000000000e-01 1.666666666669281e-01
1.666666666666667e-01 5.000000000000000e-01 -1.666666666664732e-01
1.666666666666665e-01 1.666666666666666e-01 -1.666666666665234e-01
5.000000000000000e-01 -1.666666666665989e-01 1.666666666668602e-01
5.000000000000000e-01 1.666666666666667e-01 1.666666666667344e-01
5.000000000000000e-01 1.666666666666664e-01 -1.666666666666667e-01
5.000000000000000e-01 -1.666666666664732e-01 -1.666666666666665e-01
1.666666666666665e-01 -1.666666666666666e-01 1.666666666667846e-01
1.666666666666665e-01 1.666666666666665e-01 1.666666666668779e-01
1.666666666666665e-01 1.666666666666666e-01 -1.666666666665234e-01
1.666666666666664e-01 -1.666666666666665e-01 -1.666666666666166e-01
5.000000000000000e-01 -5.000000000000000e-01 1.666666666666666e-01
5.000000000000000e-01 -1.666666666665989e-01 1.666666666668602e-01
5.000000000000000e-01 -1.666666666664732e-01 -1.666666666666665e-01
5.000000000000000e-01 -5.000000000000000e-01 -1.666666666666667e-01
1.666666666666667e-01 -5.000000000000000e-01 1.666666666667344e-01
1.666666666666665e-01 -1.666666666666666e-01 1.666666666667846e-01
1.666666666666664e-01 -1.666666666666665e-01 -1.666666666666166e-01
1.666666666666664e-01 -5.000000000000000e-01 -1.666666666666667e-01
5.000000000000000e-01 1.666666666666666e-01 5.000000000000000e-01
5.000000000000000e-01 5.000000000000000e-01 5.000000000000000e-01
5.000000000000000e-01 5.000000000000000e-01 1.666666666666666e-01
5.000000000000000e-01 1.666666666666667e-01 1.666666666667344e-01
1.666666666666665e-01 1.666666666666664e-01 5.000000000000000e-01
1.666666666666667e-01 5.000000000000000e-01 5.000000000000000e-01
1.666666666666667e-01 5.000000000000000e-01 1.666666666669281e-01
1.666666666666665e-01 1.666666666666665e-01 1.666666666668779e-01
5.000000000000000e-01 -1.666666666666667e-01 5.000000000000000e-01
5.000000000000000e-01 1.666666666666666e-01 5.000000000000000e-01
5.000000000000000e-01 1.666666666666667e-01 1.666666666667344e-01
5.000000000000000e-01 -1.666666666665989e-01 1.666666666668602e-01
1.666666666666665e-01 -1.666666666666667e-01 5.000000000000000e-01
1.666666666666665e-01 1.666666666666664e-01 5.000000000000000e-01
1.666666666666665e-01 1.666666666666665e-01 1.666666666668779e-01
1.666666666666665e-01 -1.666666666666666e-01 1.666666666667846e-01
5.000000000000000e-01 -5.000000000000000e-01 5.000000000000000e-01
5.000000000000000e-01 -1.666666666666667e-01 5.000000000000000e-01
5.000000000000000e-01 -1.666666666665989e-01 1.666666666668602e-01
5.000000000000000e-01 -5.000000000000000e-01 1.666666666666666e-01
1.666666666666666e-01 -5.000000000000000e-01 5.000000000000000e-01
1.666666666666665e-01 -1.666666666666667e-01 5.000000000000000e-01
1.666666666666665e-01 -1.666666666666666e-01 1.666666666667846e-01
1.666666666666667e-01 -5.000000000000000e-01 1.666666666667344e-01
        </DataArray>
      </Points>

      <Cells>
        <DataArray type="Int32" Name="connectivity" format="ascii">
0 1 2 3 4 5 6 7 8 9 10 11 12 13 14 15 16 17 18 19 20 21 22 23 24 25 26 27 28 29 30 31 32 33 34 35 36 37 38 39 40 41 42 43 44 45 46 47 48 49 50 51 52 53 54 55 56 57 58 59 60 61 62 63 64 65 66 67 68 69 70 71 72 73 74 75 76 77 78 79 80 81 82 83 84 85 86 87 88 89 90 91 92 93 94 95 96 97 98 99 100 101 102 103 104 105 106 107 108 109 110 111 112 113 114 115 116 117 118 119 120 121 122 123 124 125 126 127 128 129 130 131 132 133 134 135 136 137 138 139 140 141 142 143 144 145 146 147 148 149 150 151 152 153 154 155 156 157 158 159 160 161 162 163 164 165 166 167 168 169 170 171 172 173 174 175 176 177 178 179 180 181 182 183 184 185 186 187 188 189 190 191 192 193 194 195 196 197 198 199 200 201 202 203 204 205 206 207 208 209 210 211 212 213 214 215 
        </DataArray>
        <DataArray type="Int32" Name="offsets" format="ascii">
8 16 24 32 40 48 56 64 72 80 88 96 104 112 120 128 136 144 152 160 168 176 184 192 200 208 216 
        </DataArray>
        <DataArray type="UInt8" Name="types" format="ascii">
12 12 12 12 12 12 12 12 12 12 12 12 12 12 12 12 12 12 12 12 12 12 12 12 12 12 12 
        </DataArray>
      </Cells>

  <PointData>
        <DataArray type="Float64" Name="rve_elem_5_gp_ 0_displacement" NumberOfComponents="3" format="ascii">
2.228374716213643e-03 -2.228374716214995e-03 -1.111041153053357e-02
2.228374716130781e-03 -6.685124148395370e-03 -1.111041152927518e-02
2.228374716131719e-03 -6.685124148395404e-03 -3.333123458783895e-02
2.228374716131811e-03 -2.228374716131846e-03 -3.333123458783894e-02
6.685124148395368e-03 -2.228374716131839e-03 -1.111041152926677e-02
6.685124148395278e-03 -6.685124148395397e-03 -1.111041152927967e-02
6.685124148395317e-03 -6.685124148395432e-03 -3.333123458783896e-02
6.685124148395406e-03 -2.228374716131874e-03 -3.333123458783895e-02
2.228374716212881e-03 2.228374716214959e-03 -1.111041153053564e-02
2.228374716213643e-03 -2.228374716214995e-03 -1.111041153053357e-02
2.228374716131811e-03 -2.228374716131846e-03 -3.333123458783894e-02
2.228374716131900e-03 2.228374716131710e-03 -3.333123458783893e-02
6.685124148395458e-03 2.228374716130819e-03 -1.111041152927517e-02
6.685124148395368e-03 -2.228374716131839e-03 -1.111041152926677e-02
6.685124148395406e-03 -2.228374716131874e-03 -3.333123458783895e-02
6.685124148395496e-03 2.228374716131685e-03 -3.333123458783894e-02
2.228374716129365e-03 6.685124148395307e-03 -1.111041152927962e-02
2.228374716212881e-03 2.228374716214959e-03 -1.111041153053564e-02
2.228374716131900e-03 2.228374716131710e-03 -3.333123458783893e-02
2.228374716131990e-03 6.685124148395272e-03 -3.333123458783892e-02
6.685124148395547e-03 6.685124148395279e-03 -1.111041152927965e-02
6.685124148395458e-03 2.228374716130819e-03 -1.111041152927517e-02
6.685124148395496e-03 2.228374716131685e-03 -3.333123458783894e-02
6.685124148395586e-03 6.685124148395245e-03 -3.333123458783893e-02
2.228374716212744e-03 -2.228374716214952e-03 1.111041153055314e-02
2.228374716129058e-03 -6.685124148395335e-03 1.111041152929705e-02
2.228374716130781e-03 -6.685124148395370e-03 -1.111041152927518e-02
2.228374716213643e-03 -2.228374716214995e-03 -1.111041153053357e-02
6.685124148395330e-03 -2.228374716131804e-03 1.111041152929705e-02
6.685124148395240e-03 -6.685124148395363e-03 1.111041152927961e-02
6.685124148395278e-03 -6.685124148395397e-03 -1.111041152927967e-02
6.685124148395368e-03 -2.228374716131839e-03 -1.111041152926677e-02
2.228374716213658e-03 2.228374716214987e-03 1.111041153055090e-02
2.228374716212744e-03 -2.228374716214952e-03 1.111041153055314e-02
2.228374716213643e-03 -2.228374716214995e-03 -1.111041153053357e-02
2.228374716212881e-03 2.228374716214959e-03 -1.111041153053564e-02
6.685124148395420e-03 2.228374716129169e-03 1.111041152929706e-02
6.685124148395330e-03 -2.228374716131804e-03 1.111041152929705e-02
6.685124148395368e-03 -2.228374716131839e-03 -1.111041152926677e-02
6.685124148395458e-03 2.228374716130819e-03 -1.111041152927517e-02
2.228374716131007e-03 6.685124148395342e-03 1.111041152929255e-02
2.228374716213658e-03 2.228374716214987e-03 1.111041153055090e-02
2.228374716212881e-03 2.228374716214959e-03 -1.111041153053564e-02
2.228374716129365e-03 6.685124148395307e-03 -1.111041152927962e-02
6.685124148395509e-03 6.685124148395314e-03 1.111041152927964e-02
6.685124148395420e-03 2.228374716129169e-03 1.111041152929706e-02
6.685124148395458e-03 2.228374716130819e-03 -1.111041152927517e-02
6.685124148395547e-03 6.685124148395279e-03 -1.111041152927965e-02
2.228374716131697e-03 -2.228374716131738e-03 3.333123458783892e-02
2.228374716131606e-03 -6.685124148395300e-03 3.333123458783891e-02
2.228374716129058e-03 -6.685124148395335e-03 1.111041152929705e-02
2.228374716212744e-03 -2.228374716214952e-03 1.111041153055314e-02
6.685124148395291e-03 -2.228374716131770e-03 3.333123458783891e-02
6.685124148395202e-03 -6.685124148395328e-03 3.333123458783890e-02
6.685124148395240e-03 -6.685124148395363e-03 1.111041152927961e-02
6.685124148395330e-03 -2.228374716131804e-03 1.111041152929705e-02
2.228374716131786e-03 2.228374716131818e-03 3.333123458783893e-02
2.228374716131697e-03 -2.228374716131738e-03 3.333123458783892e-02
2.228374716212744e-03 -2.228374716214952e-03 1.111041153055314e-02
2.228374716213658e-03 2.228374716214987e-03 1.111041153055090e-02
6.685124148395382e-03 2.228374716131789e-03 3.333123458783892e-02
6.685124148395291e-03 -2.228374716131770e-03 3.333123458783891e-02
6.685124148395330e-03 -2.228374716131804e-03 1.111041152929705e-02
6.685124148395420e-03 2.228374716129169e-03 1.111041152929706e-02
2.228374716131876e-03 6.685124148395376e-03 3.333123458783894e-02
2.228374716131786e-03 2.228374716131818e-03 3.333123458783893e-02
2.228374716213658e-03 2.228374716214987e-03 1.111041153055090e-02
2.228374716131007e-03 6.685124148395342e-03 1.111041152929255e-02
6.685124148395471e-03 6.685124148395349e-03 3.333123458783893e-02
6.685124148395382e-03 2.228374716131789e-03 3.333123458783892e-02
6.685124148395420e-03 2.228374716129169e-03 1.111041152929706e-02
6.685124148395509e-03 6.685124148395314e-03 1.111041152927964e-02
-2.228374716214998e-03 -2.228374716214940e-03 -1.111041153052726e-02
-2.228374716131914e-03 -6.685124148395342e-03 -1.111041152926676e-02
-2.228374716131876e-03 -6.685124148395376e-03 -3.333123458783894e-02
-2.228374716131784e-03 -2.228374716131818e-03 -3.333123458783893e-02
2.228374716213643e-03 -2.228374716214995e-03 -1.111041153053357e-02
2.228374716130781e-03 -6.685124148395370e-03 -1.111041152927518e-02
2.228374716131719e-03 -6.685124148395404e-03 -3.333123458783895e-02
2.228374716131811e-03 -2.228374716131846e-03 -3.333123458783894e-02
-2.228374716214922e-03 2.228374716214960e-03 -1.111041153053349e-02
-2.228374716214998e-03 -2.228374716214940e-03 -1.111041153052726e-02
-2.228374716131784e-03 -2.228374716131818e-03 -3.333123458783893e-02
-2.228374716131694e-03 2.228374716131738e-03 -3.333123458783892e-02
2.228374716212881e-03 2.228374716214959e-03 -1.111041153053564e-02
2.228374716213643e-03 -2.228374716214995e-03 -1.111041153053357e-02
2.228374716131811e-03 -2.228374716131846e-03 -3.333123458783894e-02
2.228374716131900e-03 2.228374716131710e-03 -3.333123458783893e-02
-2.228374716131641e-03 6.685124148395335e-03 -1.111041152927963e-02
-2.228374716214922e-03 2.228374716214960e-03 -1.111041153053349e-02
-2.228374716131694e-03 2.228374716131738e-03 -3.333123458783892e-02
-2.228374716131606e-03 6.685124148395300e-03 -3.333123458783891e-02
2.228374716129365e-03 6.685124148395307e-03 -1.111041152927962e-02
2.228374716212881e-03 2.228374716214959e-03 -1.111041153053564e-02
2.228374716131900e-03 2.228374716131710e-03 -3.333123458783893e-02
2.228374716131990e-03 6.685124148395272e-03 -3.333123458783892e-02
-2.228374716215018e-03 -2.228374716214944e-03 1.111041153055095e-02
-2.228374716131952e-03 -6.685124148395307e-03 1.111041152929706e-02
-2.228374716131914e-03 -6.685124148395342e-03 -1.111041152926676e-02
-2.228374716214998e-03 -2.228374716214940e-03 -1.111041153052726e-02
2.228374716212744e-03 -2.228374716214952e-03 1.111041153055314e-02
2.228374716129058e-03 -6.685124148395335e-03 1.111041152929705e-02
2.228374716130781e-03 -6.685124148395370e-03 -1.111041152927518e-02
2.228374716213643e-03 -2.228374716214995e-03 -1.111041153053357e-02
-2.228374716214937e-03 2.228374716215020e-03 1.111041153054473e-02
-2.228374716215018e-03 -2.228374716214944e-03 1.111041153055095e-02
-2.228374716214998e-03 -2.228374716214940e-03 -1.111041153052726e-02
-2.228374716214922e-03 2.228374716214960e-03 -1.111041153053349e-02
2.228374716213658e-03 2.228374716214987e-03 1.111041153055090e-02
2.228374716212744e-03 -2.228374716214952e-03 1.111041153055314e-02
2.228374716213643e-03 -2.228374716214995e-03 -1.111041153053357e-02
2.228374716212881e-03 2.228374716214959e-03 -1.111041153053564e-02
-2.228374716131683e-03 6.685124148395370e-03 1.111041152928418e-02
-2.228374716214937e-03 2.228374716215020e-03 1.111041153054473e-02
-2.228374716214922e-03 2.228374716214960e-03 -1.111041153053349e-02
-2.228374716131641e-03 6.685124148395335e-03 -1.111041152927963e-02
2.228374716131007e-03 6.685124148395342e-03 1.111041152929255e-02
2.228374716213658e-03 2.228374716214987e-03 1.111041153055090e-02
2.228374716212881e-03 2.228374716214959e-03 -1.111041153053564e-02
2.228374716129365e-03 6.685124148395307e-03 -1.111041152927962e-02
-2.228374716131897e-03 -2.228374716131710e-03 3.333123458783893e-02
-2.228374716131990e-03 -6.685124148395272e-03 3.333123458783892e-02
-2.228374716131952e-03 -6.685124148395307e-03 1.111041152929706e-02
-2.228374716215018e-03 -2.228374716214944e-03 1.111041153055095e-02
2.228374716131697e-03 -2.228374716131738e-03 3.333123458783892e-02
2.228374716131606e-03 -6.685124148395300e-03 3.333123458783891e-02
2.228374716129058e-03 -6.685124148395335e-03 1.111041152929705e-02
2.228374716212744e-03 -2.228374716214952e-03 1.111041153055314e-02
-2.228374716131808e-03 2.228374716131846e-03 3.333123458783894e-02
-2.228374716131897e-03 -2.228374716131710e-03 3.333123458783893e-02
-2.228374716215018e-03 -2.228374716214944e-03 1.111041153055095e-02
-2.228374716214937e-03 2.228374716215020e-03 1.111041153054473e-02
2.228374716131786e-03 2.228374716131818e-03 3.333123458783893e-02
2.228374716131697e-03 -2.228374716131738e-03 3.333123458783892e-02
2.228374716212744e-03 -2.228374716214952e-03 1.111041153055314e-02
2.228374716213658e-03 2.228374716214987e-03 1.111041153055090e-02
-2.228374716131719e-03 6.685124148395404e-03 3.333123458783895e-02
-2.228374716131808e-03 2.228374716131846e-03 3.333123458783894e-02
-2.228374716214937e-03 2.228374716215020e-03 1.111041153054473e-02
-2.228374716131683e-03 6.685124148395370e-03 1.111041152928418e-02
2.228374716131876e-03 6.685124148395376e-03 3.333123458783894e-02
2.228374716131786e-03 2.228374716131818e-03 3.333123458783893e-02
2.228374716213658e-03 2.228374716214987e-03 1.111041153055090e-02
2.228374716131007e-03 6.685124148395342e-03 1.111041152929255e-02
-6.685124148395420e-03 -2.228374716131752e-03 -1.111041152927964e-02
-6.685124148395509e-03 -6.685124148395314e-03 -1.111041152927965e-02
-6.685124148395471e-03 -6.685124148395349e-03 -3.333123458783893e-02
-6.685124148395382e-03 -2.228374716131789e-03 -3.333123458783892e-02
-2.228374716214998e-03 -2.228374716214940e-03 -1.111041153052726e-02
-2.228374716131914e-03 -6.685124148395342e-03 -1.111041152926676e-02
-2.228374716131876e-03 -6.685124148395376e-03 -3.333123458783894e-02
-2.228374716131784e-03 -2.228374716131818e-03 -3.333123458783893e-02
-6.685124148395330e-03 2.228374716129217e-03 -1.111041152927961e-02
-6.685124148395420e-03 -2.228374716131752e-03 -1.111041152927964e-02
-6.685124148395382e-03 -2.228374716131789e-03 -3.333123458783892e-02
-6.685124148395291e-03 2.228374716131770e-03 -3.333123458783891e-02
-2.228374716214922e-03 2.228374716214960e-03 -1.111041153053349e-02
-2.228374716214998e-03 -2.228374716214940e-03 -1.111041153052726e-02
-2.228374716131784e-03 -2.228374716131818e-03 -3.333123458783893e-02
-2.228374716131694e-03 2.228374716131738e-03 -3.333123458783892e-02
-6.685124148395240e-03 6.685124148395363e-03 -1.111041152927962e-02
-6.685124148395330e-03 2.228374716129217e-03 -1.111041152927961e-02
-6.685124148395291e-03 2.228374716131770e-03 -3.333123458783891e-02
-6.685124148395202e-03 6.685124148395328e-03 -3.333123458783890e-02
-2.228374716131641e-03 6.685124148395335e-03 -1.111041152927963e-02
-2.228374716214922e-03 2.228374716214960e-03 -1.111041153053349e-02
-2.228374716131694e-03 2.228374716131738e-03 -3.333123458783892e-02
-2.228374716131606e-03 6.685124148395300e-03 -3.333123458783891e-02
-6.685124148395458e-03 -2.228374716131721e-03 1.111041152928417e-02
-6.685124148395547e-03 -6.685124148395279e-03 1.111041152927964e-02
-6.685124148395509e-03 -6.685124148395314e-03 -1.111041152927965e-02
-6.685124148395420e-03 -2.228374716131752e-03 -1.111041152927964e-02
-2.228374716215018e-03 -2.228374716214944e-03 1.111041153055095e-02
-2.228374716131952e-03 -6.685124148395307e-03 1.111041152929706e-02
-2.228374716131914e-03 -6.685124148395342e-03 -1.111041152926676e-02
-2.228374716214998e-03 -2.228374716214940e-03 -1.111041153052726e-02
-6.685124148395368e-03 2.228374716130932e-03 1.111041152929256e-02
-6.685124148395458e-03 -2.228374716131721e-03 1.111041152928417e-02
-6.685124148395420e-03 -2.228374716131752e-03 -1.111041152927964e-02
-6.685124148395330e-03 2.228374716129217e-03 -1.111041152927961e-02
-2.228374716214937e-03 2.228374716215020e-03 1.111041153054473e-02
-2.228374716215018e-03 -2.228374716214944e-03 1.111041153055095e-02
-2.228374716214998e-03 -2.228374716214940e-03 -1.111041153052726e-02
-2.228374716214922e-03 2.228374716214960e-03 -1.111041153053349e-02
-6.685124148395278e-03 6.685124148395397e-03 1.111041152927967e-02
-6.685124148395368e-03 2.228374716130932e-03 1.111041152929256e-02