<?xml version="1.0" ?> 
<!-- 
# vtk DataFile Version 3.0
-->
<VTKFile type="UnstructuredGrid" version="0.1" compressor="vtkZLibDataCompressor" byte_order="LittleEndian">
  <UnstructuredGrid>
    <FieldData>
      <DataArray type="Float64" Name="TIME" NumberOfTuples="1" format="ascii">
5.000000000000000e-01 
      </DataArray>
      <DataArray type="Float64" Name="tangent_stiffness_tensor_cmat" NumberOfTuples="1" NumberOfComponents="36" format="ascii">
1.111111111111112e+01 2.777777777777779e+00 2.777777777777780e+00 2.871556165187250e-16 2.315142651753990e-17 -4.074026176040035e-16 2.777777777777779e+00 1.111111111111112e+01 2.777777777777779e+00 3.576523536602641e-17 2.480086257736466e-17 -8.045402174056304e-17 2.777777777777779e+00 2.777777777777779e+00 1.111111111111116e+01 5.383485920572894e-17 2.108770609216374e-16 -4.937979173496268e-16 3.569862779500300e-16 1.509858267276801e-16 1.157619729778319e-17 4.166666666666670e+00 -1.175511010833038e-16 -1.399307084133278e-16 1.879698788711444e-17 3.262100530130028e-17 1.547414467402559e-16 -8.244815038394583e-18 4.166666666666680e+00 1.151993649922067e-17 -2.662587454637605e-16 -1.804995453895081e-17 -3.218198477694644e-16 -3.200517313542729e-17 1.069970175502319e-17 4.166666666666680e+00 
      </DataArray>
    </FieldData>

    <Piece NumberOfPoints="216" NumberOfCells="27" >
      <Points>
        <DataArray type="Float64" NumberOfComponents="3" format="ascii">
-1.666666666665666e-01 1.666666666666666e-01 -1.666666666666168e-01
-1.666666666665992e-01 5.000000000000000e-01 -1.666666666665994e-01
-1.666666666666666e-01 5.000000000000000e-01 -5.000000000000000e-01
-1.666666666666667e-01 1.666666666666667e-01 -5.000000000000000e-01
-5.000000000000000e-01 1.666666666666667e-01 -1.666666666664732e-01
-5.000000000000000e-01 5.000000000000000e-01 -1.666666666666667e-01
-5.000000000000000e-01 5.000000000000000e-01 -5.000000000000000e-01
-5.000000000000000e-01 1.666666666666667e-01 -5.000000000000000e-01
-1.666666666665060e-01 -1.666666666666665e-01 -1.666666666666491e-01
-1.666666666665666e-01 1.666666666666666e-01 -1.666666666666168e-01
-1.666666666666667e-01 1.666666666666667e-01 -5.000000000000000e-01
-1.666666666666667e-01 -1.666666666666664e-01 -5.000000000000000e-01
-5.000000000000000e-01 -1.666666666665992e-01 -1.666666666665994e-01
-5.000000000000000e-01 1.666666666666667e-01 -1.666666666664732e-01
-5.000000000000000e-01 1.666666666666667e-01 -5.000000000000000e-01
-5.000000000000000e-01 -1.666666666666666e-01 -5.000000000000000e-01
-1.666666666664732e-01 -5.000000000000000e-01 -1.666666666666665e-01
-1.666666666665060e-01 -1.666666666666665e-01 -1.666666666666491e-01
-1.666666666666667e-01 -1.666666666666664e-01 -5.000000000000000e-01
-1.666666666666667e-01 -5.000000000000000e-01 -5.000000000000000e-01
-5.000000000000000e-01 -5.000000000000000e-01 -1.666666666666667e-01
-5.000000000000000e-01 -1.666666666665992e-01 -1.666666666665994e-01
-5.000000000000000e-01 -1.666666666666666e-01 -5.000000000000000e-01
-5.000000000000000e-01 -5.000000000000000e-01 -5.000000000000000e-01
-1.666666666665058e-01 1.666666666666665e-01 1.666666666669104e-01
-1.666666666664732e-01 5.000000000000000e-01 1.666666666669280e-01
-1.666666666665992e-01 5.000000000000000e-01 -1.666666666665994e-01
-1.666666666665666e-01 1.666666666666666e-01 -1.666666666666168e-01
-5.000000000000000e-01 1.666666666666667e-01 1.666666666669281e-01
-5.000000000000000e-01 5.000000000000000e-01 1.666666666666666e-01
-5.000000000000000e-01 5.000000000000000e-01 -1.666666666666667e-01
-5.000000000000000e-01 1.666666666666667e-01 -1.666666666664732e-01
-1.666666666665663e-01 -1.666666666666666e-01 1.666666666668778e-01
-1.666666666665058e-01 1.666666666666665e-01 1.666666666669104e-01
-1.666666666665666e-01 1.666666666666666e-01 -1.666666666666168e-01
-1.666666666665060e-01 -1.666666666666665e-01 -1.666666666666491e-01
-5.000000000000000e-01 -1.666666666664732e-01 1.666666666669280e-01
-5.000000000000000e-01 1.666666666666667e-01 1.666666666669281e-01
-5.000000000000000e-01 1.666666666666667e-01 -1.666666666664732e-01
-5.000000000000000e-01 -1.666666666665992e-01 -1.666666666665994e-01
-1.666666666665989e-01 -5.000000000000000e-01 1.666666666668602e-01
-1.666666666665663e-01 -1.666666666666666e-01 1.666666666668778e-01
-1.666666666665060e-01 -1.666666666666665e-01 -1.666666666666491e-01
-1.666666666664732e-01 -5.000000000000000e-01 -1.666666666666665e-01
-5.000000000000000e-01 -5.000000000000000e-01 1.666666666666666e-01
-5.000000000000000e-01 -1.666666666664732e-01 1.666666666669280e-01
-5.000000000000000e-01 -1.666666666665992e-01 -1.666666666665994e-01
-5.000000000000000e-01 -5.000000000000000e-01 -1.666666666666667e-01
-1.666666666666667e-01 1.666666666666664e-01 5.000000000000000e-01
-1.666666666666666e-01 5.000000000000000e-01 5.000000000000000e-01
-1.666666666664732e-01 5.000000000000000e-01 1.666666666669280e-01
-1.666666666665058e-01 1.666666666666665e-01 1.666666666669104e-01
-5.000000000000000e-01 1.666666666666667e-01 5.000000000000000e-01
-5.000000000000000e-01 5.000000000000000e-01 5.000000000000000e-01
-5.000000000000000e-01 5.000000000000000e-01 1.666666666666666e-01
-5.000000000000000e-01 1.666666666666667e-01 1.666666666669281e-01
-1.666666666666667e-01 -1.666666666666667e-01 5.000000000000000e-01
-1.666666666666667e-01 1.666666666666664e-01 5.000000000000000e-01
-1.666666666665058e-01 1.666666666666665e-01 1.666666666669104e-01
-1.666666666665663e-01 -1.666666666666666e-01 1.666666666668778e-01
-5.000000000000000e-01 -1.666666666666666e-01 5.000000000000000e-01
-5.000000000000000e-01 1.666666666666667e-01 5.000000000000000e-01
-5.000000000000000e-01 1.666666666666667e-01 1.666666666669281e-01
-5.000000000000000e-01 -1.666666666664732e-01 1.666666666669280e-01
-1.666666666666667e-01 -5.000000000000000e-01 5.000000000000000e-01
-1.666666666666667e-01 -1.666666666666667e-01 5.000000000000000e-01
-1.666666666665663e-01 -1.666666666666666e-01 1.666666666668778e-01
-1.666666666665989e-01 -5.000000000000000e-01 1.666666666668602e-01
-5.000000000000000e-01 -5.000000000000000e-01 5.000000000000000e-01
-5.000000000000000e-01 -1.666666666666666e-01 5.000000000000000e-01
-5.000000000000000e-01 -1.666666666664732e-01 1.666666666669280e-01
-5.000000000000000e-01 -5.000000000000000e-01 1.666666666666666e-01
1.666666666666665e-01 1.666666666666666e-01 -1.666666666665234e-01
1.666666666666667e-01 5.000000000000000e-01 -1.666666666664732e-01
1.666666666666667e-01 5.000000000000000e-01 -5.000000000000000e-01
1.666666666666665e-01 1.666666666666667e-01 -5.000000000000000e-01
-1.666666666665666e-01 1.666666666666666e-01 -1.666666666666168e-01
-1.666666666665992e-01 5.000000000000000e-01 -1.666666666665994e-01
-1.666666666666666e-01 5.000000000000000e-01 -5.000000000000000e-01
-1.666666666666667e-01 1.666666666666667e-01 -5.000000000000000e-01
1.666666666666664e-01 -1.666666666666665e-01 -1.666666666666166e-01
1.666666666666665e-01 1.666666666666666e-01 -1.666666666665234e-01
1.666666666666665e-01 1.666666666666667e-01 -5.000000000000000e-01
1.666666666666665e-01 -1.666666666666664e-01 -5.000000000000000e-01
-1.666666666665060e-01 -1.666666666666665e-01 -1.666666666666491e-01
-1.666666666665666e-01 1.666666666666666e-01 -1.666666666666168e-01
-1.666666666666667e-01 1.666666666666667e-01 -5.000000000000000e-01
-1.666666666666667e-01 -1.666666666666664e-01 -5.000000000000000e-01
1.666666666666664e-01 -5.000000000000000e-01 -1.666666666666667e-01
1.666666666666664e-01 -1.666666666666665e-01 -1.666666666666166e-01
1.666666666666665e-01 -1.666666666666664e-01 -5.000000000000000e-01
1.666666666666666e-01 -5.000000000000000e-01 -5.000000000000000e-01
-1.666666666664732e-01 -5.000000000000000e-01 -1.666666666666665e-01
-1.666666666665060e-01 -1.666666666666665e-01 -1.666666666666491e-01
-1.666666666666667e-01 -1.666666666666664e-01 -5.000000000000000e-01
-1.666666666666667e-01 -5.000000000000000e-01 -5.000000000000000e-01
1.666666666666665e-01 1.666666666666665e-01 1.666666666668779e-01
1.666666666666667e-01 5.000000000000000e-01 1.666666666669281e-01
1.666666666666667e-01 5.000000000000000e-01 -1.666666666664732e-01
1.666666666666665e-01 1.666666666666666e-01 -1.666666666665234e-01
-1.666666666665058e-01 1.666666666666665e-01 1.666666666669104e-01
-1.666666666664732e-01 5.000000000000000e-01 1.666666666669280e-01
-1.666666666665992e-01 5.000000000000000e-01 -1.666666666665994e-01
-1.666666666665666e-01 1.666666666666666e-01 -1.666666666666168e-01
1.666666666666665e-01 -1.666666666666666e-01 1.666666666667846e-01
1.666666666666665e-01 1.666666666666665e-01 1.666666666668779e-01
1.666666666666665e-01 1.666666666666666e-01 -1.666666666665234e-01
1.666666666666664e-01 -1.666666666666665e-01 -1.666666666666166e-01
-1.666666666665663e-01 -1.666666666666666e-01 1.666666666668778e-01
-1.666666666665058e-01 1.666666666666665e-01 1.666666666669104e-01
-1.666666666665666e-01 1.666666666666666e-01 -1.666666666666168e-01
-1.666666666665060e-01 -1.666666666666665e-01 -1.666666666666491e-01
1.666666666666667e-01 -5.000000000000000e-01 1.666666666667344e-01
1.666666666666665e-01 -1.666666666666666e-01 1.666666666667846e-01
1.666666666666664e-01 -1.666666666666665e-01 -1.666666666666166e-01
1.666666666666664e-01 -5.000000000000000e-01 -1.666666666666667e-01
-1.666666666665989e-01 -5.000000000000000e-01 1.666666666668602e-01
-1.666666666665663e-01 -1.666666666666666e-01 1.666666666668778e-01
-1.666666666665060e-01 -1.666666666666665e-01 -1.666666666666491e-01
-1.666666666664732e-01 -5.000000000000000e-01 -1.666666666666665e-01
1.666666666666665e-01 1.666666666666664e-01 5.000000000000000e-01
1.666666666666667e-01 5.000000000000000e-01 5.000000000000000e-01
1.666666666666667e-01 5.000000000000000e-01 1.666666666669281e-01
1.666666666666665e-01 1.666666666666665e-01 1.666666666668779e-01
-1.666666666666667e-01 1.666666666666664e-01 5.000000000000000e-01
-1.666666666666666e-01 5.000000000000000e-01 5.000000000000000e-01
-1.666666666664732e-01 5.000000000000000e-01 1.666666666669280e-01
-1.666666666665058e-01 1.666666666666665e-01 1.666666666669104e-01
1.666666666666665e-01 -1.666666666666667e-01 5.000000000000000e-01
1.666666666666665e-01 1.666666666666664e-01 5.000000000000000e-01
1.666666666666665e-01 1.666666666666665e-01 1.666666666668779e-01
1.666666666666665e-01 -1.666666666666666e-01 1.666666666667846e-01
-1.666666666666667e-01 -1.666666666666667e-01 5.000000000000000e-01
-1.666666666666667e-01 1.666666666666664e-01 5.000000000000000e-01
-1.666666666665058e-01 1.666666666666665e-01 1.666666666669104e-01
-1.666666666665663e-01 -1.666666666666666e-01 1.666666666668778e-01
1.666666666666666e-01 -5.000000000000000e-01 5.000000000000000e-01
1.666666666666665e-01 -1.666666666666667e-01 5.000000000000000e-01
1.666666666666665e-01 -1.666666666666666e-01 1.666666666667846e-01
1.666666666666667e-01 -5.000000000000000e-01 1.666666666667344e-01
-1.666666666666667e-01 -5.000000000000000e-01 5.000000000000000e-01
-1.666666666666667e-01 -1.666666666666667e-01 5.000000000000000e-01
-1.666666666665663e-01 -1.666666666666666e-01 1.666666666668778e-01
-1.666666666665989e-01 -5.000000000000000e-01 1.666666666668602e-01
5.000000000000000e-01 1.666666666666664e-01 -1.666666666666667e-01
5.000000000000000e-01 5.000000000000000e-01 -1.666666666666667e-01
5.000000000000000e-01 5.000000000000000e-01 -5.000000000000000e-01
5.000000000000000e-01 1.666666666666666e-01 -5.000000000000000e-01
1.666666666666665e-01 1.666666666666666e-01 -1.666666666665234e-01
1.666666666666667e-01 5.000000000000000e-01 -1.666666666664732e-01
1.666666666666667e-01 5.000000000000000e-01 -5.000000000000000e-01
1.666666666666665e-01 1.666666666666667e-01 -5.000000000000000e-01
5.000000000000000e-01 -1.666666666664732e-01 -1.666666666666665e-01
5.000000000000000e-01 1.666666666666664e-01 -1.666666666666667e-01
5.000000000000000e-01 1.666666666666666e-01 -5.000000000000000e-01
5.000000000000000e-01 -1.666666666666667e-01 -5.000000000000000e-01
1.666666666666664e-01 -1.666666666666665e-01 -1.666666666666166e-01
1.666666666666665e-01 1.666666666666666e-01 -1.666666666665234e-01
1.666666666666665e-01 1.666666666666667e-01 -5.000000000000000e-01
1.666666666666665e-01 -1.666666666666664e-01 -5.000000000000000e-01
5.000000000000000e-01 -5.000000000000000e-01 -1.666666666666667e-01
5.000000000000000e-01 -1.666666666664732e-01 -1.666666666666665e-01
5.000000000000000e-01 -1.666666666666667e-01 -5.000000000000000e-01
5.000000000000000e-01 -5.000000000000000e-01 -5.000000000000000e-01
1.666666666666664e-01 -5.000000000000000e-01 -1.666666666666667e-01
1.666666666666664e-01 -1.666666666666665e-01 -1.666666666666166e-01
1.666666666666665e-01 -1.666666666666664e-01 -5.000000000000000e-01
1.666666666666666e-01 -5.000000000000000e-01 -5.000000000000000e-01
5.000000000000000e-01 1.666666666666667e-01 1.666666666667344e-01
5.000000000000000e-01 5.000000000000000e-01 1.666666666666666e-01
5.000000000000000e-01 5.000000000000000e-01 -1.666666666666667e-01
5.000000000000000e-01 1.666666666666664e-01 -1.666666666666667e-01
1.666666666666665e-01 1.666666666666665e-01 1.666666666668779e-01
1.666666666666667e-01 5.000000000000000e-01 1.666666666669281e-01
1.666666666666667e-01 5.000000000000000e-01 -1.666666666664732e-01
1.666666666666665e-01 1.666666666666666e-01 -1.666666666665234e-01
5.000000000000000e-01 -1.666666666665989e-01 1.666666666668602e-01
5.000000000000000e-01 1.666666666666667e-01 1.666666666667344e-01
5.000000000000000e-01 1.666666666666664e-01 -1.666666666666667e-01
5.000000000000000e-01 -1.666666666664732e-01 -1.666666666666665e-01
1.666666666666665e-01 -1.666666666666666e-01 1.666666666667846e-01
1.666666666666665e-01 1.666666666666665e-01 1.666666666668779e-01
1.666666666666665e-01 1.666666666666666e-01 -1.666666666665234e-01
1.666666666666664e-01 -1.666666666666665e-01 -1.666666666666166e-01
5.000000000000000e-01 -5.000000000000000e-01 1.666666666666666e-01
5.000000000000000e-01 -1.666666666665989e-01 1.666666666668602e-01
5.000000000000000e-01 -1.666666666664732e-01 -1.666666666666665e-01
5.000000000000000e-01 -5.000000000000000e-01 -1.666666666666667e-01
1.666666666666667e-01 -5.000000000000000e-01 1.666666666667344e-01
1.666666666666665e-01 -1.666666666666666e-01 1.666666666667846e-01
1.666666666666664e-01 -1.666666666666665e-01 -1.666666666666166e-01
1.666666666666664e-01 -5.000000000000000e-01 -1.666666666666667e-01
5.000000000000000e-01 1.666666666666666e-01 5.000000000000000e-01
5.000000000000000e-01 5.000000000000000e-01 5.000000000000000e-01
5.000000000000000e-01 5.000000000000000e-01 1.666666666666666e-01
5.000000000000000e-01 1.666666666666667e-01 1.666666666667344e-01
1.666666666666665e-01 1.666666666666664e-01 5.000000000000000e-01
1.666666666666667e-01 5.000000000000000e-01 5.000000000000000e-01
1.666666666666667e-01 5.000000000000000e-01 1.666666666669281e-01
1.666666666666665e-01 1.666666666666665e-01 1.666666666668779e-01
5.000000000000000e-01 -1.666666666666667e-01 5.000000000000000e-01
5.000000000000000e-01 1.666666666666666e-01 5.000000000000000e-01
5.000000000000000e-01 1.666666666666667e-01 1.666666666667344e-01
5.000000000000000e-01 -1.666666666665989e-01 1.666666666668602e-01
1.666666666666665e-01 -1.666666666666667e-01 5.000000000000000e-01
1.666666666666665e-01 1.666666666666664e-01 5.000000000000000e-01
1.666666666666665e-01 1.666666666666665e-01 1.666666666668779e-01
1.666666666666665e-01 -1.666666666666666e-01 1.666666666667846e-01
5.000000000000000e-01 -5.000000000000000e-01 5.000000000000000e-01
5.000000000000000e-01 -1.666666666666667e-01 5.000000000000000e-01
5.000000000000000e-01 -1.666666666665989e-01 1.666666666668602e-01
5.000000000000000e-01 -5.000000000000000e-01 1.666666666666666e-01
1.666666666666666e-01 -5.000000000000000e-01 5.000000000000000e-01
1.666666666666665e-01 -1.666666666666667e-01 5.000000000000000e-01
1.666666666666665e-01 -1.666666666666666e-01 1.666666666667846e-01
1.666666666666667e-01 -5.000000000000000e-01 1.666666666667344e-01
        </DataArray>
      </Points>

      <Cells>
        <DataArray type="Int32" Name="connectivity" format="ascii">
0 1 2 3 4 5 6 7 8 9 10 11 12 13 14 15 16 17 18 19 20 21 22 23 24 25 26 27 28 29 30 31 32 33 34 35 36 37 38 39 40 41 42 43 44 45 46 47 48 49 50 51 52 53 54 55 56 57 58 59 60 61 62 63 64 65 66 67 68 69 70 71 72 73 74 75 76 77 78 79 80 81 82 83 84 85 86 87 88 89 90 91 92 93 94 95 96 97 98 99 100 101 102 103 104 105 106 107 108 109 110 111 112 113 114 115 116 117 118 119 120 121 122 123 124 125 126 127 128 129 130 131 132 133 134 135 136 137 138 139 140 141 142 143 144 145 146 147 148 149 150 151 152 153 154 155 156 157 158 159 160 161 162 163 164 165 166 167 168 169 170 171 172 173 174 175 176 177 178 179 180 181 182 183 184 185 186 187 188 189 190 191 192 193 194 195 196 197 198 199 200 201 202 203 204 205 206 207 208 209 210 211 212 213 214 215 
        </DataArray>
        <DataArray type="Int32" Name="offsets" format="ascii">
8 16 24 32 40 48 56 64 72 80 88 96 104 112 120 128 136 144 152 160 168 176 184 192 200 208 216 
        </DataArray>
        <DataArray type="UInt8" Name="types" format="ascii">
12 12 12 12 12 12 12 12 12 12 12 12 12 12 12 12 12 12 12 12 12 12 12 12 12 12 12 
        </DataArray>
      </Cells>

  <PointData>
        <DataArray type="Float64" Name="rve_elem_5_gp_ 0_displacement" NumberOfComponents="3" format="ascii">
5.279714568951931e-04 -5.279714568955204e-04 -3.552953885565850e-03
5.279714568950191e-04 -1.583914370685737e-03 -3.552953885561423e-03
5.279714568952509e-04 -1.583914370685744e-03 -1.065886165668830e-02
5.279714568952632e-04 -5.279714568952611e-04 -1.065886165668822e-02
1.583914370685727e-03 -5.279714568952727e-04 -3.552953885558668e-03
1.583914370685715e-03 -1.583914370685755e-03 -3.552953885562876e-03
1.583914370685734e-03 -1.583914370685762e-03 -1.065886165668832e-02
1.583914370685746e-03 -5.279714568952797e-04 -1.065886165668824e-02
5.279714568949725e-04 5.279714568954963e-04 -3.552953885566412e-03
5.279714568951931e-04 -5.279714568955204e-04 -3.552953885565850e-03
5.279714568952632e-04 -5.279714568952611e-04 -1.065886165668822e-02
5.279714568952749e-04 5.279714568952209e-04 -1.065886165668813e-02
1.583914370685739e-03 5.279714568949964e-04 -3.552953885561275e-03
1.583914370685727e-03 -5.279714568952727e-04 -3.552953885558668e-03
1.583914370685746e-03 -5.279714568952797e-04 -1.065886165668824e-02
1.583914370685757e-03 5.279714568952029e-04 -1.065886165668815e-02
5.279714568946554e-04 1.583914370685711e-03 -3.552953885562603e-03
5.279714568949725e-04 5.279714568954963e-04 -3.552953885566412e-03
5.279714568952749e-04 5.279714568952209e-04 -1.065886165668813e-02
5.279714568952867e-04 1.583914370685704e-03 -1.065886165668805e-02
1.583914370685751e-03 1.583914370685693e-03 -3.552953885562626e-03
1.583914370685739e-03 5.279714568949964e-04 -3.552953885561275e-03
1.583914370685757e-03 5.279714568952029e-04 -1.065886165668815e-02
1.583914370685769e-03 1.583914370685686e-03 -1.065886165668807e-02
5.279714568949851e-04 -5.279714568954826e-04 3.552953885572000e-03
5.279714568946016e-04 -1.583914370685730e-03 3.552953885568160e-03
5.279714568950191e-04 -1.583914370685737e-03 -3.552953885561423e-03
5.279714568951931e-04 -5.279714568955204e-04 -3.552953885565850e-03
1.583914370685709e-03 -5.279714568952658e-04 3.552953885568226e-03
1.583914370685697e-03 -1.583914370685748e-03 3.552953885562568e-03
1.583914370685715e-03 -1.583914370685755e-03 -3.552953885562876e-03
1.583914370685727e-03 -5.279714568952727e-04 -3.552953885558668e-03
5.279714568951673e-04 5.279714568955155e-04 3.552953885571326e-03
5.279714568949851e-04 -5.279714568954826e-04 3.552953885572000e-03
5.279714568951931e-04 -5.279714568955204e-04 -3.552953885565850e-03
5.279714568949725e-04 5.279714568954963e-04 -3.552953885566412e-03
1.583914370685721e-03 5.279714568946042e-04 3.552953885568308e-03
1.583914370685709e-03 -5.279714568952658e-04 3.552953885568226e-03
1.583914370685727e-03 -5.279714568952727e-04 -3.552953885558668e-03
1.583914370685739e-03 5.279714568949964e-04 -3.552953885561275e-03
5.279714568950351e-04 1.583914370685718e-03 3.552953885566964e-03
5.279714568951673e-04 5.279714568955155e-04 3.552953885571326e-03
5.279714568949725e-04 5.279714568954963e-04 -3.552953885566412e-03
5.279714568946554e-04 1.583914370685711e-03 -3.552953885562603e-03
1.583914370685732e-03 1.583914370685700e-03 3.552953885562818e-03
1.583914370685721e-03 5.279714568946042e-04 3.552953885568308e-03
1.583914370685739e-03 5.279714568949964e-04 -3.552953885561275e-03
1.583914370685751e-03 1.583914370685693e-03 -3.552953885562626e-03
5.279714568952081e-04 -5.279714568952393e-04 1.065886165668812e-02
5.279714568951958e-04 -1.583914370685723e-03 1.065886165668803e-02
5.279714568946016e-04 -1.583914370685730e-03 3.552953885568160e-03
5.279714568949851e-04 -5.279714568954826e-04 3.552953885572000e-03
1.583914370685691e-03 -5.279714568952588e-04 1.065886165668810e-02
1.583914370685679e-03 -1.583914370685741e-03 1.065886165668802e-02
1.583914370685697e-03 -1.583914370685748e-03 3.552953885562568e-03
1.583914370685709e-03 -5.279714568952658e-04 3.552953885568226e-03
5.279714568952198e-04 5.279714568952427e-04 1.065886165668820e-02
5.279714568952081e-04 -5.279714568952393e-04 1.065886165668812e-02
5.279714568949851e-04 -5.279714568954826e-04 3.552953885572000e-03
5.279714568951673e-04 5.279714568955155e-04 3.552953885571326e-03
1.583914370685702e-03 5.279714568952237e-04 1.065886165668818e-02
1.583914370685691e-03 -5.279714568952588e-04 1.065886165668810e-02
1.583914370685709e-03 -5.279714568952658e-04 3.552953885568226e-03
1.583914370685721e-03 5.279714568946042e-04 3.552953885568308e-03
5.279714568952316e-04 1.583914370685725e-03 1.065886165668828e-02
5.279714568952198e-04 5.279714568952427e-04 1.065886165668820e-02
5.279714568951673e-04 5.279714568955155e-04 3.552953885571326e-03
5.279714568950351e-04 1.583914370685718e-03 3.552953885566964e-03
1.583914370685714e-03 1.583914370685707e-03 1.065886165668826e-02
1.583914370685702e-03 5.279714568952237e-04 1.065886165668818e-02
1.583914370685721e-03 5.279714568946042e-04 3.552953885568308e-03
1.583914370685732e-03 1.583914370685700e-03 3.552953885562818e-03
-5.279714568955202e-04 -5.279714568954540e-04 -3.552953885563780e-03
-5.279714568952500e-04 -1.583914370685718e-03 -3.552953885558714e-03
-5.279714568952316e-04 -1.583914370685725e-03 -1.065886165668828e-02
-5.279714568952191e-04 -5.279714568952427e-04 -1.065886165668820e-02
5.279714568951931e-04 -5.279714568955204e-04 -3.552953885565850e-03
5.279714568950191e-04 -1.583914370685737e-03 -3.552953885561423e-03
5.279714568952509e-04 -1.583914370685744e-03 -1.065886165668830e-02
5.279714568952632e-04 -5.279714568952611e-04 -1.065886165668822e-02
-5.279714568955013e-04 5.279714568955131e-04 -3.552953885565691e-03
-5.279714568955202e-04 -5.279714568954540e-04 -3.552953885563780e-03
-5.279714568952191e-04 -5.279714568952427e-04 -1.065886165668820e-02
-5.279714568952073e-04 5.279714568952393e-04 -1.065886165668812e-02
5.279714568949725e-04 5.279714568954963e-04 -3.552953885566412e-03
5.279714568951931e-04 -5.279714568955204e-04 -3.552953885565850e-03
5.279714568952632e-04 -5.279714568952611e-04 -1.065886165668822e-02
5.279714568952749e-04 5.279714568952209e-04 -1.065886165668813e-02
-5.279714568952136e-04 1.583914370685730e-03 -3.552953885562590e-03
-5.279714568955013e-04 5.279714568955131e-04 -3.552953885565691e-03
-5.279714568952073e-04 5.279714568952393e-04 -1.065886165668812e-02
-5.279714568951958e-04 1.583914370685723e-03 -1.065886165668803e-02
5.279714568946554e-04 1.583914370685711e-03 -3.552953885562603e-03
5.279714568949725e-04 5.279714568954963e-04 -3.552953885566412e-03
5.279714568952749e-04 5.279714568952209e-04 -1.065886165668813e-02
5.279714568952867e-04 1.583914370685704e-03 -1.065886165668805e-02
-5.279714568955209e-04 -5.279714568955055e-04 3.552953885571324e-03
-5.279714568952684e-04 -1.583914370685711e-03 3.552953885568180e-03
-5.279714568952500e-04 -1.583914370685718e-03 -3.552953885558714e-03
-5.279714568955202e-04 -5.279714568954540e-04 -3.552953885563780e-03
5.279714568949851e-04 -5.279714568954826e-04 3.552953885572000e-03
5.279714568946016e-04 -1.583914370685730e-03 3.552953885568160e-03
5.279714568950191e-04 -1.583914370685737e-03 -3.552953885561423e-03
5.279714568951931e-04 -5.279714568955204e-04 -3.552953885565850e-03
-5.279714568954758e-04 5.279714568955192e-04 3.552953885569407e-03
-5.279714568955209e-04 -5.279714568955055e-04 3.552953885571324e-03
-5.279714568955202e-04 -5.279714568954540e-04 -3.552953885563780e-03
-5.279714568955013e-04 5.279714568955131e-04 -3.552953885565691e-03
5.279714568951673e-04 5.279714568955155e-04 3.552953885571326e-03
5.279714568949851e-04 -5.279714568954826e-04 3.552953885572000e-03
5.279714568951931e-04 -5.279714568955204e-04 -3.552953885565850e-03
5.279714568949725e-04 5.279714568954963e-04 -3.552953885566412e-03
-5.279714568952330e-04 1.583914370685737e-03 3.552953885564301e-03
-5.279714568954758e-04 5.279714568955192e-04 3.552953885569407e-03
-5.279714568955013e-04 5.279714568955131e-04 -3.552953885565691e-03
-5.279714568952136e-04 1.583914370685730e-03 -3.552953885562590e-03
5.279714568950351e-04 1.583914370685718e-03 3.552953885566964e-03
5.279714568951673e-04 5.279714568955155e-04 3.552953885571326e-03
5.279714568949725e-04 5.279714568954963e-04 -3.552953885566412e-03
5.279714568946554e-04 1.583914370685711e-03 -3.552953885562603e-03
-5.279714568952741e-04 -5.279714568952209e-04 1.065886165668813e-02
-5.279714568952867e-04 -1.583914370685704e-03 1.065886165668805e-02
-5.279714568952684e-04 -1.583914370685711e-03 3.552953885568180e-03
-5.279714568955209e-04 -5.279714568955055e-04 3.552953885571324e-03
5.279714568952081e-04 -5.279714568952393e-04 1.065886165668812e-02
5.279714568951958e-04 -1.583914370685723e-03 1.065886165668803e-02
5.279714568946016e-04 -1.583914370685730e-03 3.552953885568160e-03
5.279714568949851e-04 -5.279714568954826e-04 3.552953885572000e-03
-5.279714568952624e-04 5.279714568952611e-04 1.065886165668822e-02
-5.279714568952741e-04 -5.279714568952209e-04 1.065886165668813e-02
-5.279714568955209e-04 -5.279714568955055e-04 3.552953885571324e-03
-5.279714568954758e-04 5.279714568955192e-04 3.552953885569407e-03
5.279714568952198e-04 5.279714568952427e-04 1.065886165668820e-02
5.279714568952081e-04 -5.279714568952393e-04 1.065886165668812e-02
5.279714568949851e-04 -5.279714568954826e-04 3.552953885572000e-03
5.279714568951673e-04 5.279714568955155e-04 3.552953885571326e-03
-5.279714568952509e-04 1.583914370685744e-03 1.065886165668830e-02
-5.279714568952624e-04 5.279714568952611e-04 1.065886165668822e-02
-5.279714568954758e-04 5.279714568955192e-04 3.552953885569407e-03
-5.279714568952330e-04 1.583914370685737e-03 3.552953885564301e-03
5.279714568952316e-04 1.583914370685725e-03 1.065886165668828e-02
5.279714568952198e-04 5.279714568952427e-04 1.065886165668820e-02
5.279714568951673e-04 5.279714568955155e-04 3.552953885571326e-03
5.279714568950351e-04 1.583914370685718e-03 3.552953885566964e-03
-1.583914370685721e-03 -5.279714568952162e-04 -3.552953885562737e-03
-1.583914370685732e-03 -1.583914370685700e-03 -3.552953885562821e-03
-1.583914370685714e-03 -1.583914370685707e-03 -1.065886165668826e-02
-1.583914370685702e-03 -5.279714568952237e-04 -1.065886165668818e-02
-5.279714568955202e-04 -5.279714568954540e-04 -3.552953885563780e-03
-5.279714568952500e-04 -1.583914370685718e-03 -3.552953885558714e-03
-5.279714568952316e-04 -1.583914370685725e-03 -1.065886165668828e-02
-5.279714568952191e-04 -5.279714568952427e-04 -1.065886165668820e-02
-1.583914370685709e-03 5.279714568946528e-04 -3.552953885562649e-03
-1.583914370685721e-03 -5.279714568952162e-04 -3.552953885562737e-03
-1.583914370685702e-03 -5.279714568952237e-04 -1.065886165668818e-02
-1.583914370685691e-03 5.279714568952588e-04 -1.065886165668810e-02
-5.279714568955013e-04 5.279714568955131e-04 -3.552953885565691e-03
-5.279714568955202e-04 -5.279714568954540e-04 -3.552953885563780e-03
-5.279714568952191e-04 -5.279714568952427e-04 -1.065886165668820e-02
-5.279714568952073e-04 5.279714568952393e-04 -1.065886165668812e-02
-1.583914370685697e-03 1.583914370685748e-03 -3.552953885562571e-03
-1.583914370685709e-03 5.279714568946528e-04 -3.552953885562649e-03
-1.583914370685691e-03 5.279714568952588e-04 -1.065886165668810e-02
-1.583914370685679e-03 1.583914370685741e-03 -1.065886165668802e-02
-5.279714568952136e-04 1.583914370685730e-03 -3.552953885562590e-03
-5.279714568955013e-04 5.279714568955131e-04 -3.552953885565691e-03
-5.279714568952073e-04 5.279714568952393e-04 -1.065886165668812e-02
-5.279714568951958e-04 1.583914370685723e-03 -1.065886165668803e-02
-1.583914370685739e-03 -5.279714568952103e-04 3.552953885564153e-03
-1.583914370685751e-03 -1.583914370685693e-03 3.552953885562624e-03
-1.583914370685732e-03 -1.583914370685700e-03 -3.552953885562821e-03
-1.583914370685721e-03 -5.279714568952162e-04 -3.552953885562737e-03
-5.279714568955209e-04 -5.279714568955055e-04 3.552953885571324e-03
-5.279714568952684e-04 -1.583914370685711e-03 3.552953885568180e-03
-5.279714568952500e-04 -1.583914370685718e-03 -3.552953885558714e-03
-5.279714568955202e-04 -5.279714568954540e-04 -3.552953885563780e-03
-1.583914370685727e-03 5.279714568950578e-04 3.552953885566918e-03
-1.583914370685739e-03 -5.279714568952103e-04 3.552953885564153e-03
-1.583914370685721e-03 -5.279714568952162e-04 -3.552953885562737e-03
-1.583914370685709e-03 5.279714568946528e-04 -3.552953885562649e-03
-5.279714568954758e-04 5.279714568955192e-04 3.552953885569407e-03
-5.279714568955209e-04 -5.279714568955055e-04 3.552953885571324e-03
-5.279714568955202e-04 -5.279714568954540e-04 -3.552953885563780e-03
-5.279714568955013e-04 5.279714568955131e-04 -3.552953885565691e-03
-1.583914370685715e-03 1.583914370685755e-03 3.552953885562874e-03
-1.583914370685727e-03 5.279714568950578e-04 3.552953885566918e-03