<?xml version="1.0" ?> 
<!-- 
# vtk DataFile Version 3.0
-->
<VTKFile type="UnstructuredGrid" version="0.1" compressor="vtkZLibDataCompressor" byte_order="LittleEndian">
  <UnstructuredGrid>
    <FieldData>
      <DataArray type="Float64" Name="TIME" NumberOfTuples="1" format="ascii">
1.000000000000000e+00 
      </DataArray>
      <DataArray type="Float64" Name="tangent_stiffness_tensor_cmat" NumberOfTuples="1" NumberOfComponents="36" format="ascii">
1.111111111111094e+01 2.777777777777779e+00 2.777777777777779e+00 4.936728758918349e-16 -1.036343426083972e-16 -2.294262726979544e-16 2.777777777777779e+00 1.111111111111094e+01 2.777777777777779e+00 4.402111351256950e-16 -5.123178648130297e-16 -8.590639080585813e-17 2.777777777777778e+00 2.777777777777779e+00 1.111111111112563e+01 8.069711210565693e-17 4.365213367929651e-18 -5.484584969754930e-16 1.479536189374627e-16 1.942871276014509e-16 5.197834619954641e-17 4.166666666666581e+00 -2.144227884129288e-16 -1.889423815263562e-16 -9.697511367494748e-17 -2.910796654952618e-16 -5.079284286635551e-16 -1.441132385049720e-16 4.166666666670872e+00 7.580216237763114e-17 -4.421158914042473e-16 -3.371335842173305e-17 -4.396674968302844e-16 -2.454961193102196e-17 5.668469126773041e-17 4.166666666670872e+00 
      </DataArray>
    </FieldData>

    <Piece NumberOfPoints="216" NumberOfCells="27" >
      <Points>
        <DataArray type="Float64" NumberOfComponents="3" format="ascii">
-1.666666666665666e-01 1.666666666666666e-01 -1.666666666666168e-01
-1.666666666665992e-01 5.000000000000000e-01 -1.666666666665994e-01
-1.666666666666666e-01 5.000000000000000e-01 -5.000000000000000e-01
-1.666666666666667e-01 1.666666666666667e-01 -5.000000000000000e-01
-5.000000000000000e-01 1.666666666666667e-01 -1.666666666664732e-01
-5.000000000000000e-01 5.000000000000000e-01 -1.666666666666667e-01
-5.000000000000000e-01 5.000000000000000e-01 -5.000000000000000e-01
-5.000000000000000e-01 1.666666666666667e-01 -5.000000000000000e-01
-1.666666666665060e-01 -1.666666666666665e-01 -1.666666666666491e-01
-1.666666666665666e-01 1.666666666666666e-01 -1.666666666666168e-01
-1.666666666666667e-01 1.666666666666667e-01 -5.000000000000000e-01
-1.666666666666667e-01 -1.666666666666664e-01 -5.000000000000000e-01
-5.000000000000000e-01 -1.666666666665992e-01 -1.666666666665994e-01
-5.000000000000000e-01 1.666666666666667e-01 -1.666666666664732e-01
-5.000000000000000e-01 1.666666666666667e-01 -5.000000000000000e-01
-5.000000000000000e-01 -1.666666666666666e-01 -5.000000000000000e-01
-1.666666666664732e-01 -5.000000000000000e-01 -1.666666666666665e-01
-1.666666666665060e-01 -1.666666666666665e-01 -1.666666666666491e-01
-1.666666666666667e-01 -1.666666666666664e-01 -5.000000000000000e-01
-1.666666666666667e-01 -5.000000000000000e-01 -5.000000000000000e-01
-5.000000000000000e-01 -5.000000000000000e-01 -1.666666666666667e-01
-5.000000000000000e-01 -1.666666666665992e-01 -1.666666666665994e-01
-5.000000000000000e-01 -1.666666666666666e-01 -5.000000000000000e-01
-5.000000000000000e-01 -5.000000000000000e-01 -5.000000000000000e-01
-1.666666666665058e-01 1.666666666666665e-01 1.666666666669104e-01
-1.666666666664732e-01 5.000000000000000e-01 1.666666666669280e-01
-1.666666666665992e-01 5.000000000000000e-01 -1.666666666665994e-01
-1.666666666665666e-01 1.666666666666666e-01 -1.666666666666168e-01
-5.000000000000000e-01 1.666666666666667e-01 1.666666666669281e-01
-5.000000000000000e-01 5.000000000000000e-01 1.666666666666666e-01
-5.000000000000000e-01 5.000000000000000e-01 -1.666666666666667e-01
-5.000000000000000e-01 1.666666666666667e-01 -1.666666666664732e-01
-1.666666666665663e-01 -1.666666666666666e-01 1.666666666668778e-01
-1.666666666665058e-01 1.666666666666665e-01 1.666666666669104e-01
-1.666666666665666e-01 1.666666666666666e-01 -1.666666666666168e-01
-1.666666666665060e-01 -1.666666666666665e-01 -1.666666666666491e-01
-5.000000000000000e-01 -1.666666666664732e-01 1.666666666669280e-01
-5.000000000000000e-01 1.666666666666667e-01 1.666666666669281e-01
-5.000000000000000e-01 1.666666666666667e-01 -1.666666666664732e-01
-5.000000000000000e-01 -1.666666666665992e-01 -1.666666666665994e-01
-1.666666666665989e-01 -5.000000000000000e-01 1.666666666668602e-01
-1.666666666665663e-01 -1.666666666666666e-01 1.666666666668778e-01
-1.666666666665060e-01 -1.666666666666665e-01 -1.666666666666491e-01
-1.666666666664732e-01 -5.000000000000000e-01 -1.666666666666665e-01
-5.000000000000000e-01 -5.000000000000000e-01 1.666666666666666e-01
-5.000000000000000e-01 -1.666666666664732e-01 1.666666666669280e-01
-5.000000000000000e-01 -1.666666666665992e-01 -1.666666666665994e-01
-5.000000000000000e-01 -5.000000000000000e-01 -1.666666666666667e-01
-1.666666666666667e-01 1.666666666666664e-01 5.000000000000000e-01
-1.666666666666666e-01 5.000000000000000e-01 5.000000000000000e-01
-1.666666666664732e-01 5.000000000000000e-01 1.666666666669280e-01
-1.666666666665058e-01 1.666666666666665e-01 1.666666666669104e-01
-5.000000000000000e-01 1.666666666666667e-01 5.000000000000000e-01
-5.000000000000000e-01 5.000000000000000e-01 5.000000000000000e-01
-5.000000000000000e-01 5.000000000000000e-01 1.666666666666666e-01
-5.000000000000000e-01 1.666666666666667e-01 1.666666666669281e-01
-1.666666666666667e-01 -1.666666666666667e-01 5.000000000000000e-01
-1.666666666666667e-01 1.666666666666664e-01 5.000000000000000e-01
-1.666666666665058e-01 1.666666666666665e-01 1.666666666669104e-01
-1.666666666665663e-01 -1.666666666666666e-01 1.666666666668778e-01
-5.000000000000000e-01 -1.666666666666666e-01 5.000000000000000e-01
-5.000000000000000e-01 1.666666666666667e-01 5.000000000000000e-01
-5.000000000000000e-01 1.666666666666667e-01 1.666666666669281e-01
-5.000000000000000e-01 -1.666666666664732e-01 1.666666666669280e-01
-1.666666666666667e-01 -5.000000000000000e-01 5.000000000000000e-01
-1.666666666666667e-01 -1.666666666666667e-01 5.000000000000000e-01
-1.666666666665663e-01 -1.666666666666666e-01 1.666666666668778e-01
-1.666666666665989e-01 -5.000000000000000e-01 1.666666666668602e-01
-5.000000000000000e-01 -5.000000000000000e-01 5.000000000000000e-01
-5.000000000000000e-01 -1.666666666666666e-01 5.000000000000000e-01
-5.000000000000000e-01 -1.666666666664732e-01 1.666666666669280e-01
-5.000000000000000e-01 -5.000000000000000e-01 1.666666666666666e-01
1.666666666666665e-01 1.666666666666666e-01 -1.666666666665234e-01
1.666666666666667e-01 5.000000000000000e-01 -1.666666666664732e-01
1.666666666666667e-01 5.000000000000000e-01 -5.000000000000000e-01
1.666666666666665e-01 1.666666666666667e-01 -5.000000000000000e-01
-1.666666666665666e-01 1.666666666666666e-01 -1.666666666666168e-01
-1.666666666665992e-01 5.000000000000000e-01 -1.666666666665994e-01
-1.666666666666666e-01 5.000000000000000e-01 -5.000000000000000e-01
-1.666666666666667e-01 1.666666666666667e-01 -5.000000000000000e-01
1.666666666666664e-01 -1.666666666666665e-01 -1.666666666666166e-01
1.666666666666665e-01 1.666666666666666e-01 -1.666666666665234e-01
1.666666666666665e-01 1.666666666666667e-01 -5.000000000000000e-01
1.666666666666665e-01 -1.666666666666664e-01 -5.000000000000000e-01
-1.666666666665060e-01 -1.666666666666665e-01 -1.666666666666491e-01
-1.666666666665666e-01 1.666666666666666e-01 -1.666666666666168e-01
-1.666666666666667e-01 1.666666666666667e-01 -5.000000000000000e-01
-1.666666666666667e-01 -1.666666666666664e-01 -5.000000000000000e-01
1.666666666666664e-01 -5.000000000000000e-01 -1.666666666666667e-01
1.666666666666664e-01 -1.666666666666665e-01 -1.666666666666166e-01
1.666666666666665e-01 -1.666666666666664e-01 -5.000000000000000e-01
1.666666666666666e-01 -5.000000000000000e-01 -5.000000000000000e-01
-1.666666666664732e-01 -5.000000000000000e-01 -1.666666666666665e-01
-1.666666666665060e-01 -1.666666666666665e-01 -1.666666666666491e-01
-1.666666666666667e-01 -1.666666666666664e-01 -5.000000000000000e-01
-1.666666666666667e-01 -5.000000000000000e-01 -5.000000000000000e-01
1.666666666666665e-01 1.666666666666665e-01 1.666666666668779e-01
1.666666666666667e-01 5.000000000000000e-01 1.666666666669281e-01
1.666666666666667e-01 5.000000000000000e-01 -1.666666666664732e-01
1.666666666666665e-01 1.666666666666666e-01 -1.666666666665234e-01
-1.666666666665058e-01 1.666666666666665e-01 1.666666666669104e-01
-1.666666666664732e-01 5.000000000000000e-01 1.666666666669280e-01
-1.666666666665992e-01 5.000000000000000e-01 -1.666666666665994e-01
-1.666666666665666e-01 1.666666666666666e-01 -1.666666666666168e-01
1.666666666666665e-01 -1.666666666666666e-01 1.666666666667846e-01
1.666666666666665e-01 1.666666666666665e-01 1.666666666668779e-01
1.666666666666665e-01 1.666666666666666e-01 -1.666666666665234e-01
1.666666666666664e-01 -1.666666666666665e-01 -1.666666666666166e-01
-1.666666666665663e-01 -1.666666666666666e-01 1.666666666668778e-01
-1.666666666665058e-01 1.666666666666665e-01 1.666666666669104e-01
-1.666666666665666e-01 1.666666666666666e-01 -1.666666666666168e-01
-1.666666666665060e-01 -1.666666666666665e-01 -1.666666666666491e-01
1.666666666666667e-01 -5.000000000000000e-01 1.666666666667344e-01
1.666666666666665e-01 -1.666666666666666e-01 1.666666666667846e-01
1.666666666666664e-01 -1.666666666666665e-01 -1.666666666666166e-01
1.666666666666664e-01 -5.000000000000000e-01 -1.666666666666667e-01
-1.666666666665989e-01 -5.000000000000000e-01 1.666666666668602e-01
-1.666666666665663e-01 -1.666666666666666e-01 1.666666666668778e-01
-1.666666666665060e-01 -1.666666666666665e-01 -1.666666666666491e-01
-1.666666666664732e-01 -5.000000000000000e-01 -1.666666666666665e-01
1.666666666666665e-01 1.666666666666664e-01 5.000000000000000e-01
1.666666666666667e-01 5.000000000000000e-01 5.000000000000000e-01
1.666666666666667e-01 5.000000000000000e-01 1.666666666669281e-01
1.666666666666665e-01 1.666666666666665e-01 1.666666666668779e-01
-1.666666666666667e-01 1.666666666666664e-01 5.000000000000000e-01
-1.666666666666666e-01 5.000000000000000e-01 5.000000000000000e-01
-1.666666666664732e-01 5.000000000000000e-01 1.666666666669280e-01
-1.666666666665058e-01 1.666666666666665e-01 1.666666666669104e-01
1.666666666666665e-01 -1.666666666666667e-01 5.000000000000000e-01
1.666666666666665e-01 1.666666666666664e-01 5.000000000000000e-01
1.666666666666665e-01 1.666666666666665e-01 1.666666666668779e-01
1.666666666666665e-01 -1.666666666666666e-01 1.666666666667846e-01
-1.666666666666667e-01 -1.666666666666667e-01 5.000000000000000e-01
-1.666666666666667e-01 1.666666666666664e-01 5.000000000000000e-01
-1.666666666665058e-01 1.666666666666665e-01 1.666666666669104e-01
-1.666666666665663e-01 -1.666666666666666e-01 1.666666666668778e-01
1.666666666666666e-01 -5.000000000000000e-01 5.000000000000000e-01
1.666666666666665e-01 -1.666666666666667e-01 5.000000000000000e-01
1.666666666666665e-01 -1.666666666666666e-01 1.666666666667846e-01
1.666666666666667e-01 -5.000000000000000e-01 1.666666666667344e-01
-1.666666666666667e-01 -5.000000000000000e-01 5.000000000000000e-01
-1.666666666666667e-01 -1.666666666666667e-01 5.000000000000000e-01
-1.666666666665663e-01 -1.666666666666666e-01 1.666666666668778e-01
-1.666666666665989e-01 -5.000000000000000e-01 1.666666666668602e-01
5.000000000000000e-01 1.666666666666664e-01 -1.666666666666667e-01
5.000000000000000e-01 5.000000000000000e-01 -1.666666666666667e-01
5.000000000000000e-01 5.000000000000000e-01 -5.000000000000000e-01
5.000000000000000e-01 1.666666666666666e-01 -5.000000000000000e-01
1.666666666666665e-01 1.666666666666666e-01 -1.666666666665234e-01
1.666666666666667e-01 5.000000000000000e-01 -1.666666666664732e-01
1.666666666666667e-01 5.000000000000000e-01 -5.000000000000000e-01
1.666666666666665e-01 1.666666666666667e-01 -5.000000000000000e-01
5.000000000000000e-01 -1.666666666664732e-01 -1.666666666666665e-01
5.000000000000000e-01 1.666666666666664e-01 -1.666666666666667e-01
5.000000000000000e-01 1.666666666666666e-01 -5.000000000000000e-01
5.000000000000000e-01 -1.666666666666667e-01 -5.000000000000000e-01
1.666666666666664e-01 -1.666666666666665e-01 -1.666666666666166e-01
1.666666666666665e-01 1.666666666666666e-01 -1.666666666665234e-01
1.666666666666665e-01 1.666666666666667e-01 -5.000000000000000e-01
1.666666666666665e-01 -1.666666666666664e-01 -5.000000000000000e-01
5.000000000000000e-01 -5.000000000000000e-01 -1.666666666666667e-01
5.000000000000000e-01 -1.666666666664732e-01 -1.666666666666665e-01
5.000000000000000e-01 -1.666666666666667e-01 -5.000000000000000e-01
5.000000000000000e-01 -5.000000000000000e-01 -5.000000000000000e-01
1.666666666666664e-01 -5.000000000000000e-01 -1.666666666666667e-01
1.666666666666664e-01 -1.666666666666665e-01 -1.666666666666166e-01
1.666666666666665e-01 -1.666666666666664e-01 -5.000000000000000e-01
1.666666666666666e-01 -5.000000000000000e-01 -5.000000000000000e-01
5.000000000000000e-01 1.666666666666667e-01 1.666666666667344e-01
5.000000000000000e-01 5.000000000000000e-01 1.666666666666666e-01
5.000000000000000e-01 5.000000000000000e-01 -1.666666666666667e-01
5.000000000000000e-01 1.666666666666664e-01 -1.666666666666667e-01
1.666666666666665e-01 1.666666666666665e-01 1.666666666668779e-01
1.666666666666667e-01 5.000000000000000e-01 1.666666666669281e-01
1.666666666666667e-01 5.000000000000000e-01 -1.666666666664732e-01
1.666666666666665e-01 1.666666666666666e-01 -1.666666666665234e-01
5.000000000000000e-01 -1.666666666665989e-01 1.666666666668602e-01
5.000000000000000e-01 1.666666666666667e-01 1.666666666667344e-01
5.000000000000000e-01 1.666666666666664e-01 -1.666666666666667e-01
5.000000000000000e-01 -1.666666666664732e-01 -1.666666666666665e-01
1.666666666666665e-01 -1.666666666666666e-01 1.666666666667846e-01
1.666666666666665e-01 1.666666666666665e-01 1.666666666668779e-01
1.666666666666665e-01 1.666666666666666e-01 -1.666666666665234e-01
1.666666666666664e-01 -1.666666666666665e-01 -1.666666666666166e-01
5.000000000000000e-01 -5.000000000000000e-01 1.666666666666666e-01
5.000000000000000e-01 -1.666666666665989e-01 1.666666666668602e-01
5.000000000000000e-01 -1.666666666664732e-01 -1.666666666666665e-01
5.000000000000000e-01 -5.000000000000000e-01 -1.666666666666667e-01
1.666666666666667e-01 -5.000000000000000e-01 1.666666666667344e-01
1.666666666666665e-01 -1.666666666666666e-01 1.666666666667846e-01
1.666666666666664e-01 -1.666666666666665e-01 -1.666666666666166e-01
1.666666666666664e-01 -5.000000000000000e-01 -1.666666666666667e-01
5.000000000000000e-01 1.666666666666666e-01 5.000000000000000e-01
5.000000000000000e-01 5.000000000000000e-01 5.000000000000000e-01
5.000000000000000e-01 5.000000000000000e-01 1.666666666666666e-01
5.000000000000000e-01 1.666666666666667e-01 1.666666666667344e-01
1.666666666666665e-01 1.666666666666664e-01 5.000000000000000e-01
1.666666666666667e-01 5.000000000000000e-01 5.000000000000000e-01
1.666666666666667e-01 5.000000000000000e-01 1.666666666669281e-01
1.666666666666665e-01 1.666666666666665e-01 1.666666666668779e-01
5.000000000000000e-01 -1.666666666666667e-01 5.000000000000000e-01
5.000000000000000e-01 1.666666666666666e-01 5.000000000000000e-01
5.000000000000000e-01 1.666666666666667e-01 1.666666666667344e-01
5.000000000000000e-01 -1.666666666665989e-01 1.666666666668602e-01
1.666666666666665e-01 -1.666666666666667e-01 5.000000000000000e-01
1.666666666666665e-01 1.666666666666664e-01 5.000000000000000e-01
1.666666666666665e-01 1.666666666666665e-01 1.666666666668779e-01
1.666666666666665e-01 -1.666666666666666e-01 1.666666666667846e-01
5.000000000000000e-01 -5.000000000000000e-01 5.000000000000000e-01
5.000000000000000e-01 -1.666666666666667e-01 5.000000000000000e-01
5.000000000000000e-01 -1.666666666665989e-01 1.666666666668602e-01
5.000000000000000e-01 -5.000000000000000e-01 1.666666666666666e-01
1.666666666666666e-01 -5.000000000000000e-01 5.000000000000000e-01
1.666666666666665e-01 -1.666666666666667e-01 5.000000000000000e-01
1.666666666666665e-01 -1.666666666666666e-01 1.666666666667846e-01
1.666666666666667e-01 -5.000000000000000e-01 1.666666666667344e-01
        </DataArray>
      </Points>

      <Cells>
        <DataArray type="Int32" Name="connectivity" format="ascii">
0 1 2 3 4 5 6 7 8 9 10 11 12 13 14 15 16 17 18 19 20 21 22 23 24 25 26 27 28 29 30 31 32 33 34 35 36 37 38 39 40 41 42 43 44 45 46 47 48 49 50 51 52 53 54 55 56 57 58 59 60 61 62 63 64 65 66 67 68 69 70 71 72 73 74 75 76 77 78 79 80 81 82 83 84 85 86 87 88 89 90 91 92 93 94 95 96 97 98 99 100 101 102 103 104 105 106 107 108 109 110 111 112 113 114 115 116 117 118 119 120 121 122 123 124 125 126 127 128 129 130 131 132 133 134 135 136 137 138 139 140 141 142 143 144 145 146 147 148 149 150 151 152 153 154 155 156 157 158 159 160 161 162 163 164 165 166 167 168 169 170 171 172 173 174 175 176 177 178 179 180 181 182 183 184 185 186 187 188 189 190 191 192 193 194 195 196 197 198 199 200 201 202 203 204 205 206 207 208 209 210 211 212 213 214 215 
        </DataArray>
        <DataArray type="Int32" Name="offsets" format="ascii">
8 16 24 32 40 48 56 64 72 80 88 96 104 112 120 128 136 144 152 160 168 176 184 192 200 208 216 
        </DataArray>
        <DataArray type="UInt8" Name="types" format="ascii">
12 12 12 12 12 12 12 12 12 12 12 12 12 12 12 12 12 12 12 12 12 12 12 12 12 12 12 
        </DataArray>
      </Cells>

  <PointData>
        <DataArray type="Float64" Name="rve_elem_3_gp_ 0_displacement" NumberOfComponents="3" format="ascii">
2.228374716213677e-03 -2.228374716214895e-03 -1.111041153053348e-02
2.228374716130898e-03 -6.685124148395268e-03 -1.111041152927511e-02
2.228374716131804e-03 -6.685124148395206e-03 -3.333123458783881e-02
2.228374716131805e-03 -2.228374716131649e-03 -3.333123458783880e-02
6.685124148395396e-03 -2.228374716131634e-03 -1.111041152926664e-02
6.685124148395396e-03 -6.685124148395191e-03 -1.111041152927955e-02
6.685124148395401e-03 -6.685124148395129e-03 -3.333123458783877e-02
6.685124148395401e-03 -2.228374716131572e-03 -3.333123458783876e-02
2.228374716212826e-03 2.228374716215079e-03 -1.111041153053557e-02
2.228374716213677e-03 -2.228374716214895e-03 -1.111041153053348e-02
2.228374716131805e-03 -2.228374716131649e-03 -3.333123458783880e-02
2.228374716131805e-03 2.228374716131907e-03 -3.333123458783879e-02
6.685124148395396e-03 2.228374716131024e-03 -1.111041152927505e-02
6.685124148395396e-03 -2.228374716131634e-03 -1.111041152926664e-02
6.685124148395401e-03 -2.228374716131572e-03 -3.333123458783876e-02
6.685124148395401e-03 2.228374716131987e-03 -3.333123458783874e-02
2.228374716129214e-03 6.685124148395409e-03 -1.111041152927956e-02
2.228374716212826e-03 2.228374716215079e-03 -1.111041153053557e-02
2.228374716131805e-03 2.228374716131907e-03 -3.333123458783879e-02
2.228374716131805e-03 6.685124148395470e-03 -3.333123458783879e-02
6.685124148395396e-03 6.685124148395486e-03 -1.111041152927953e-02
6.685124148395396e-03 2.228374716131024e-03 -1.111041152927505e-02
6.685124148395401e-03 2.228374716131987e-03 -3.333123458783874e-02
6.685124148395401e-03 6.685124148395547e-03 -3.333123458783874e-02
2.228374716212825e-03 -2.228374716214958e-03 1.111041153055312e-02
2.228374716129209e-03 -6.685124148395330e-03 1.111041152929704e-02
2.228374716130898e-03 -6.685124148395268e-03 -1.111041152927511e-02
2.228374716213677e-03 -2.228374716214895e-03 -1.111041153053348e-02
6.685124148395391e-03 -2.228374716131695e-03 1.111041152929710e-02
6.685124148395391e-03 -6.685124148395253e-03 1.111041152927966e-02
6.685124148395396e-03 -6.685124148395191e-03 -1.111041152927955e-02
6.685124148395396e-03 -2.228374716131634e-03 -1.111041152926664e-02
2.228374716213636e-03 2.228374716214973e-03 1.111041153055090e-02
2.228374716212825e-03 -2.228374716214958e-03 1.111041153055312e-02
2.228374716213677e-03 -2.228374716214895e-03 -1.111041153053348e-02
2.228374716212826e-03 2.228374716215079e-03 -1.111041153053557e-02
6.685124148395391e-03 2.228374716129278e-03 1.111041152929710e-02
6.685124148395391e-03 -2.228374716131695e-03 1.111041152929710e-02
6.685124148395396e-03 -2.228374716131634e-03 -1.111041152926664e-02
6.685124148395396e-03 2.228374716131024e-03 -1.111041152927505e-02
2.228374716130890e-03 6.685124148395346e-03 1.111041152929254e-02
2.228374716213636e-03 2.228374716214973e-03 1.111041153055090e-02
2.228374716212826e-03 2.228374716215079e-03 -1.111041153053557e-02
2.228374716129214e-03 6.685124148395409e-03 -1.111041152927956e-02
6.685124148395391e-03 6.685124148395423e-03 1.111041152927969e-02
6.685124148395391e-03 2.228374716129278e-03 1.111041152929710e-02
6.685124148395396e-03 2.228374716131024e-03 -1.111041152927505e-02
6.685124148395396e-03 6.685124148395486e-03 -1.111041152927953e-02
2.228374716131791e-03 -2.228374716131830e-03 3.333123458783884e-02
2.228374716131790e-03 -6.685124148395392e-03 3.333123458783883e-02
2.228374716129209e-03 -6.685124148395330e-03 1.111041152929704e-02
2.228374716212825e-03 -2.228374716214958e-03 1.111041153055312e-02
6.685124148395387e-03 -2.228374716131757e-03 3.333123458783888e-02
6.685124148395387e-03 -6.685124148395315e-03 3.333123458783888e-02
6.685124148395391e-03 -6.685124148395253e-03 1.111041152927966e-02
6.685124148395391e-03 -2.228374716131695e-03 1.111041152929710e-02
2.228374716131791e-03 2.228374716131726e-03 3.333123458783885e-02
2.228374716131791e-03 -2.228374716131830e-03 3.333123458783884e-02
2.228374716212825e-03 -2.228374716214958e-03 1.111041153055312e-02
2.228374716213636e-03 2.228374716214973e-03 1.111041153055090e-02
6.685124148395387e-03 2.228374716131801e-03 3.333123458783890e-02
6.685124148395387e-03 -2.228374716131757e-03 3.333123458783888e-02
6.685124148395391e-03 -2.228374716131695e-03 1.111041152929710e-02
6.685124148395391e-03 2.228374716129278e-03 1.111041152929710e-02
2.228374716131791e-03 6.685124148395285e-03 3.333123458783886e-02
2.228374716131791e-03 2.228374716131726e-03 3.333123458783885e-02
2.228374716213636e-03 2.228374716214973e-03 1.111041153055090e-02
2.228374716130890e-03 6.685124148395346e-03 1.111041152929254e-02
6.685124148395387e-03 6.685124148395362e-03 3.333123458783890e-02
6.685124148395387e-03 2.228374716131801e-03 3.333123458783890e-02
6.685124148395391e-03 2.228374716129278e-03 1.111041152929710e-02
6.685124148395391e-03 6.685124148395423e-03 1.111041152927969e-02
-2.228374716214987e-03 -2.228374716214952e-03 -1.111041153052728e-02
-2.228374716131796e-03 -6.685124148395346e-03 -1.111041152926675e-02
-2.228374716131791e-03 -6.685124148395285e-03 -3.333123458783886e-02
-2.228374716131789e-03 -2.228374716131726e-03 -3.333123458783885e-02
2.228374716213677e-03 -2.228374716214895e-03 -1.111041153053348e-02
2.228374716130898e-03 -6.685124148395268e-03 -1.111041152927511e-02
2.228374716131804e-03 -6.685124148395206e-03 -3.333123458783881e-02
2.228374716131805e-03 -2.228374716131649e-03 -3.333123458783880e-02
-2.228374716214991e-03 2.228374716214955e-03 -1.111041153053349e-02
-2.228374716214987e-03 -2.228374716214952e-03 -1.111041153052728e-02
-2.228374716131789e-03 -2.228374716131726e-03 -3.333123458783885e-02
-2.228374716131789e-03 2.228374716131830e-03 -3.333123458783884e-02
2.228374716212826e-03 2.228374716215079e-03 -1.111041153053557e-02
2.228374716213677e-03 -2.228374716214895e-03 -1.111041153053348e-02
2.228374716131805e-03 -2.228374716131649e-03 -3.333123458783880e-02
2.228374716131805e-03 2.228374716131907e-03 -3.333123458783879e-02
-2.228374716131792e-03 6.685124148395330e-03 -1.111041152927962e-02
-2.228374716214991e-03 2.228374716214955e-03 -1.111041153053349e-02
-2.228374716131789e-03 2.228374716131830e-03 -3.333123458783884e-02
-2.228374716131790e-03 6.685124148395392e-03 -3.333123458783883e-02
2.228374716129214e-03 6.685124148395409e-03 -1.111041152927956e-02
2.228374716212826e-03 2.228374716215079e-03 -1.111041153053557e-02
2.228374716131805e-03 2.228374716131907e-03 -3.333123458783879e-02
2.228374716131805e-03 6.685124148395470e-03 -3.333123458783879e-02
-2.228374716214967e-03 -2.228374716215052e-03 1.111041153055090e-02
-2.228374716131801e-03 -6.685124148395409e-03 1.111041152929700e-02
-2.228374716131796e-03 -6.685124148395346e-03 -1.111041152926675e-02
-2.228374716214987e-03 -2.228374716214952e-03 -1.111041153052728e-02
2.228374716212825e-03 -2.228374716214958e-03 1.111041153055312e-02
2.228374716129209e-03 -6.685124148395330e-03 1.111041152929704e-02
2.228374716130898e-03 -6.685124148395268e-03 -1.111041152927511e-02
2.228374716213677e-03 -2.228374716214895e-03 -1.111041153053348e-02
-2.228374716214970e-03 2.228374716214898e-03 1.111041153054467e-02
-2.228374716214967e-03 -2.228374716215052e-03 1.111041153055090e-02
-2.228374716214987e-03 -2.228374716214952e-03 -1.111041153052728e-02
-2.228374716214991e-03 2.228374716214955e-03 -1.111041153053349e-02
2.228374716213636e-03 2.228374716214973e-03 1.111041153055090e-02
2.228374716212825e-03 -2.228374716214958e-03 1.111041153055312e-02
2.228374716213677e-03 -2.228374716214895e-03 -1.111041153053348e-02
2.228374716212826e-03 2.228374716215079e-03 -1.111041153053557e-02
-2.228374716131801e-03 6.685124148395268e-03 1.111041152928411e-02
-2.228374716214970e-03 2.228374716214898e-03 1.111041153054467e-02
-2.228374716214991e-03 2.228374716214955e-03 -1.111041153053349e-02
-2.228374716131792e-03 6.685124148395330e-03 -1.111041152927962e-02
2.228374716130890e-03 6.685124148395346e-03 1.111041152929254e-02
2.228374716213636e-03 2.228374716214973e-03 1.111041153055090e-02
2.228374716212826e-03 2.228374716215079e-03 -1.111041153053557e-02
2.228374716129214e-03 6.685124148395409e-03 -1.111041152927956e-02
-2.228374716131803e-03 -2.228374716131907e-03 3.333123458783879e-02
-2.228374716131805e-03 -6.685124148395470e-03 3.333123458783879e-02
-2.228374716131801e-03 -6.685124148395409e-03 1.111041152929700e-02
-2.228374716214967e-03 -2.228374716215052e-03 1.111041153055090e-02
2.228374716131791e-03 -2.228374716131830e-03 3.333123458783884e-02
2.228374716131790e-03 -6.685124148395392e-03 3.333123458783883e-02
2.228374716129209e-03 -6.685124148395330e-03 1.111041152929704e-02
2.228374716212825e-03 -2.228374716214958e-03 1.111041153055312e-02
-2.228374716131803e-03 2.228374716131649e-03 3.333123458783880e-02
-2.228374716131803e-03 -2.228374716131907e-03 3.333123458783879e-02
-2.228374716214967e-03 -2.228374716215052e-03 1.111041153055090e-02
-2.228374716214970e-03 2.228374716214898e-03 1.111041153054467e-02
2.228374716131791e-03 2.228374716131726e-03 3.333123458783885e-02
2.228374716131791e-03 -2.228374716131830e-03 3.333123458783884e-02
2.228374716212825e-03 -2.228374716214958e-03 1.111041153055312e-02
2.228374716213636e-03 2.228374716214973e-03 1.111041153055090e-02
-2.228374716131804e-03 6.685124148395206e-03 3.333123458783881e-02
-2.228374716131803e-03 2.228374716131649e-03 3.333123458783880e-02
-2.228374716214970e-03 2.228374716214898e-03 1.111041153054467e-02
-2.228374716131801e-03 6.685124148395268e-03 1.111041152928411e-02
2.228374716131791e-03 6.685124148395285e-03 3.333123458783886e-02
2.228374716131791e-03 2.228374716131726e-03 3.333123458783885e-02
2.228374716213636e-03 2.228374716214973e-03 1.111041153055090e-02
2.228374716130890e-03 6.685124148395346e-03 1.111041152929254e-02
-6.685124148395391e-03 -2.228374716131861e-03 -1.111041152927968e-02
-6.685124148395391e-03 -6.685124148395423e-03 -1.111041152927969e-02
-6.685124148395387e-03 -6.685124148395362e-03 -3.333123458783890e-02
-6.685124148395387e-03 -2.228374716131801e-03 -3.333123458783890e-02
-2.228374716214987e-03 -2.228374716214952e-03 -1.111041153052728e-02
-2.228374716131796e-03 -6.685124148395346e-03 -1.111041152926675e-02
-2.228374716131791e-03 -6.685124148395285e-03 -3.333123458783886e-02
-2.228374716131789e-03 -2.228374716131726e-03 -3.333123458783885e-02
-6.685124148395391e-03 2.228374716129108e-03 -1.111041152927966e-02
-6.685124148395391e-03 -2.228374716131861e-03 -1.111041152927968e-02
-6.685124148395387e-03 -2.228374716131801e-03 -3.333123458783890e-02
-6.685124148395387e-03 2.228374716131757e-03 -3.333123458783888e-02
-2.228374716214991e-03 2.228374716214955e-03 -1.111041153053349e-02
-2.228374716214987e-03 -2.228374716214952e-03 -1.111041153052728e-02
-2.228374716131789e-03 -2.228374716131726e-03 -3.333123458783885e-02
-2.228374716131789e-03 2.228374716131830e-03 -3.333123458783884e-02
-6.685124148395391e-03 6.685124148395253e-03 -1.111041152927967e-02
-6.685124148395391e-03 2.228374716129108e-03 -1.111041152927966e-02
-6.685124148395387e-03 2.228374716131757e-03 -3.333123458783888e-02
-6.685124148395387e-03 6.685124148395315e-03 -3.333123458783888e-02
-2.228374716131792e-03 6.685124148395330e-03 -1.111041152927962e-02
-2.228374716214991e-03 2.228374716214955e-03 -1.111041153053349e-02
-2.228374716131789e-03 2.228374716131830e-03 -3.333123458783884e-02
-2.228374716131790e-03 6.685124148395392e-03 -3.333123458783883e-02
-6.685124148395396e-03 -2.228374716131927e-03 1.111041152928405e-02
-6.685124148395396e-03 -6.685124148395486e-03 1.111041152927952e-02
-6.685124148395391e-03 -6.685124148395423e-03 -1.111041152927969e-02
-6.685124148395391e-03 -2.228374716131861e-03 -1.111041152927968e-02
-2.228374716214967e-03 -2.228374716215052e-03 1.111041153055090e-02
-2.228374716131801e-03 -6.685124148395409e-03 1.111041152929700e-02
-2.228374716131796e-03 -6.685124148395346e-03 -1.111041152926675e-02
-2.228374716214987e-03 -2.228374716214952e-03 -1.111041153052728e-02
-6.685124148395396e-03 2.228374716130727e-03 1.111041152929244e-02
-6.685124148395396e-03 -2.228374716131927e-03 1.111041152928405e-02
-6.685124148395391e-03 -2.228374716131861e-03 -1.111041152927968e-02
-6.685124148395391e-03 2.228374716129108e-03 -1.111041152927966e-02
-2.228374716214970e-03 2.228374716214898e-03 1.111041153054467e-02
-2.228374716214967e-03 -2.228374716215052e-03 1.111041153055090e-02
-2.228374716214987e-03 -2.228374716214952e-03 -1.111041153052728e-02
-2.228374716214991e-03 2.228374716214955e-03 -1.111041153053349e-02
-6.685124148395396e-03 6.685124148395191e-03 1.111041152927955e-02
-6.685124148395396e-03 2.228374716130727e-03 1.111041152929244e-02