<?xml version="1.0" ?> 
<!-- 
# vtk DataFile Version 3.0
-->
<VTKFile type="UnstructuredGrid" version="0.1" compressor="vtkZLibDataCompressor" byte_order="LittleEndian">
  <UnstructuredGrid>
    <FieldData>
      <DataArray type="Float64" Name="TIME" NumberOfTuples="1" format="ascii">
5.000000000000000e-01 
      </DataArray>
      <DataArray type="Float64" Name="tangent_stiffness_tensor_cmat" NumberOfTuples="1" NumberOfComponents="36" format="ascii">
1.111111111111111e+01 2.777777777777778e+00 2.777777777777779e+00 6.690082218944007e-17 5.504992154793119e-17 -3.015806597310514e-16 2.777777777777778e+00 1.111111111111111e+01 2.777777777777778e+00 5.277831876360533e-16 1.373466676442392e-16 -9.657369575235726e-17 2.777777777777779e+00 2.777777777777779e+00 1.111111111111116e+01 7.379176963767115e-17 7.592541602705050e-17 -4.844471441693687e-16 1.122907521197883e-16 3.566980671293561e-16 1.312895710163030e-16 4.166666666666668e+00 -5.456320846560557e-17 6.979467396803151e-17 4.033026851727603e-17 -1.002449965383591e-16 5.741567435683309e-17 -7.831675279481328e-17 4.166666666666681e+00 1.091825170980996e-16 -1.875319755825254e-16 -1.520866317764359e-16 -2.250911260075983e-16 -4.392322784782497e-17 1.036383625593792e-16 4.166666666666680e+00 
      </DataArray>
    </FieldData>

    <Piece NumberOfPoints="216" NumberOfCells="27" >
      <Points>
        <DataArray type="Float64" NumberOfComponents="3" format="ascii">
-1.666666666665666e-01 1.666666666666666e-01 -1.666666666666168e-01
-1.666666666665992e-01 5.000000000000000e-01 -1.666666666665994e-01
-1.666666666666666e-01 5.000000000000000e-01 -5.000000000000000e-01
-1.666666666666667e-01 1.666666666666667e-01 -5.000000000000000e-01
-5.000000000000000e-01 1.666666666666667e-01 -1.666666666664732e-01
-5.000000000000000e-01 5.000000000000000e-01 -1.666666666666667e-01
-5.000000000000000e-01 5.000000000000000e-01 -5.000000000000000e-01
-5.000000000000000e-01 1.666666666666667e-01 -5.000000000000000e-01
-1.666666666665060e-01 -1.666666666666665e-01 -1.666666666666491e-01
-1.666666666665666e-01 1.666666666666666e-01 -1.666666666666168e-01
-1.666666666666667e-01 1.666666666666667e-01 -5.000000000000000e-01
-1.666666666666667e-01 -1.666666666666664e-01 -5.000000000000000e-01
-5.000000000000000e-01 -1.666666666665992e-01 -1.666666666665994e-01
-5.000000000000000e-01 1.666666666666667e-01 -1.666666666664732e-01
-5.000000000000000e-01 1.666666666666667e-01 -5.000000000000000e-01
-5.000000000000000e-01 -1.666666666666666e-01 -5.000000000000000e-01
-1.666666666664732e-01 -5.000000000000000e-01 -1.666666666666665e-01
-1.666666666665060e-01 -1.666666666666665e-01 -1.666666666666491e-01
-1.666666666666667e-01 -1.666666666666664e-01 -5.000000000000000e-01
-1.666666666666667e-01 -5.000000000000000e-01 -5.000000000000000e-01
-5.000000000000000e-01 -5.000000000000000e-01 -1.666666666666667e-01
-5.000000000000000e-01 -1.666666666665992e-01 -1.666666666665994e-01
-5.000000000000000e-01 -1.666666666666666e-01 -5.000000000000000e-01
-5.000000000000000e-01 -5.000000000000000e-01 -5.000000000000000e-01
-1.666666666665058e-01 1.666666666666665e-01 1.666666666669104e-01
-1.666666666664732e-01 5.000000000000000e-01 1.666666666669280e-01
-1.666666666665992e-01 5.000000000000000e-01 -1.666666666665994e-01
-1.666666666665666e-01 1.666666666666666e-01 -1.666666666666168e-01
-5.000000000000000e-01 1.666666666666667e-01 1.666666666669281e-01
-5.000000000000000e-01 5.000000000000000e-01 1.666666666666666e-01
-5.000000000000000e-01 5.000000000000000e-01 -1.666666666666667e-01
-5.000000000000000e-01 1.666666666666667e-01 -1.666666666664732e-01
-1.666666666665663e-01 -1.666666666666666e-01 1.666666666668778e-01
-1.666666666665058e-01 1.666666666666665e-01 1.666666666669104e-01
-1.666666666665666e-01 1.666666666666666e-01 -1.666666666666168e-01
-1.666666666665060e-01 -1.666666666666665e-01 -1.666666666666491e-01
-5.000000000000000e-01 -1.666666666664732e-01 1.666666666669280e-01
-5.000000000000000e-01 1.666666666666667e-01 1.666666666669281e-01
-5.000000000000000e-01 1.666666666666667e-01 -1.666666666664732e-01
-5.000000000000000e-01 -1.666666666665992e-01 -1.666666666665994e-01
-1.666666666665989e-01 -5.000000000000000e-01 1.666666666668602e-01
-1.666666666665663e-01 -1.666666666666666e-01 1.666666666668778e-01
-1.666666666665060e-01 -1.666666666666665e-01 -1.666666666666491e-01
-1.666666666664732e-01 -5.000000000000000e-01 -1.666666666666665e-01
-5.000000000000000e-01 -5.000000000000000e-01 1.666666666666666e-01
-5.000000000000000e-01 -1.666666666664732e-01 1.666666666669280e-01
-5.000000000000000e-01 -1.666666666665992e-01 -1.666666666665994e-01
-5.000000000000000e-01 -5.000000000000000e-01 -1.666666666666667e-01
-1.666666666666667e-01 1.666666666666664e-01 5.000000000000000e-01
-1.666666666666666e-01 5.000000000000000e-01 5.000000000000000e-01
-1.666666666664732e-01 5.000000000000000e-01 1.666666666669280e-01
-1.666666666665058e-01 1.666666666666665e-01 1.666666666669104e-01
-5.000000000000000e-01 1.666666666666667e-01 5.000000000000000e-01
-5.000000000000000e-01 5.000000000000000e-01 5.000000000000000e-01
-5.000000000000000e-01 5.000000000000000e-01 1.666666666666666e-01
-5.000000000000000e-01 1.666666666666667e-01 1.666666666669281e-01
-1.666666666666667e-01 -1.666666666666667e-01 5.000000000000000e-01
-1.666666666666667e-01 1.666666666666664e-01 5.000000000000000e-01
-1.666666666665058e-01 1.666666666666665e-01 1.666666666669104e-01
-1.666666666665663e-01 -1.666666666666666e-01 1.666666666668778e-01
-5.000000000000000e-01 -1.666666666666666e-01 5.000000000000000e-01
-5.000000000000000e-01 1.666666666666667e-01 5.000000000000000e-01
-5.000000000000000e-01 1.666666666666667e-01 1.666666666669281e-01
-5.000000000000000e-01 -1.666666666664732e-01 1.666666666669280e-01
-1.666666666666667e-01 -5.000000000000000e-01 5.000000000000000e-01
-1.666666666666667e-01 -1.666666666666667e-01 5.000000000000000e-01
-1.666666666665663e-01 -1.666666666666666e-01 1.666666666668778e-01
-1.666666666665989e-01 -5.000000000000000e-01 1.666666666668602e-01
-5.000000000000000e-01 -5.000000000000000e-01 5.000000000000000e-01
-5.000000000000000e-01 -1.666666666666666e-01 5.000000000000000e-01
-5.000000000000000e-01 -1.666666666664732e-01 1.666666666669280e-01
-5.000000000000000e-01 -5.000000000000000e-01 1.666666666666666e-01
1.666666666666665e-01 1.666666666666666e-01 -1.666666666665234e-01
1.666666666666667e-01 5.000000000000000e-01 -1.666666666664732e-01
1.666666666666667e-01 5.000000000000000e-01 -5.000000000000000e-01
1.666666666666665e-01 1.666666666666667e-01 -5.000000000000000e-01
-1.666666666665666e-01 1.666666666666666e-01 -1.666666666666168e-01
-1.666666666665992e-01 5.000000000000000e-01 -1.666666666665994e-01
-1.666666666666666e-01 5.000000000000000e-01 -5.000000000000000e-01
-1.666666666666667e-01 1.666666666666667e-01 -5.000000000000000e-01
1.666666666666664e-01 -1.666666666666665e-01 -1.666666666666166e-01
1.666666666666665e-01 1.666666666666666e-01 -1.666666666665234e-01
1.666666666666665e-01 1.666666666666667e-01 -5.000000000000000e-01
1.666666666666665e-01 -1.666666666666664e-01 -5.000000000000000e-01
-1.666666666665060e-01 -1.666666666666665e-01 -1.666666666666491e-01
-1.666666666665666e-01 1.666666666666666e-01 -1.666666666666168e-01
-1.666666666666667e-01 1.666666666666667e-01 -5.000000000000000e-01
-1.666666666666667e-01 -1.666666666666664e-01 -5.000000000000000e-01
1.666666666666664e-01 -5.000000000000000e-01 -1.666666666666667e-01
1.666666666666664e-01 -1.666666666666665e-01 -1.666666666666166e-01
1.666666666666665e-01 -1.666666666666664e-01 -5.000000000000000e-01
1.666666666666666e-01 -5.000000000000000e-01 -5.000000000000000e-01
-1.666666666664732e-01 -5.000000000000000e-01 -1.666666666666665e-01
-1.666666666665060e-01 -1.666666666666665e-01 -1.666666666666491e-01
-1.666666666666667e-01 -1.666666666666664e-01 -5.000000000000000e-01
-1.666666666666667e-01 -5.000000000000000e-01 -5.000000000000000e-01
1.666666666666665e-01 1.666666666666665e-01 1.666666666668779e-01
1.666666666666667e-01 5.000000000000000e-01 1.666666666669281e-01
1.666666666666667e-01 5.000000000000000e-01 -1.666666666664732e-01
1.666666666666665e-01 1.666666666666666e-01 -1.666666666665234e-01
-1.666666666665058e-01 1.666666666666665e-01 1.666666666669104e-01
-1.666666666664732e-01 5.000000000000000e-01 1.666666666669280e-01
-1.666666666665992e-01 5.000000000000000e-01 -1.666666666665994e-01
-1.666666666665666e-01 1.666666666666666e-01 -1.666666666666168e-01
1.666666666666665e-01 -1.666666666666666e-01 1.666666666667846e-01
1.666666666666665e-01 1.666666666666665e-01 1.666666666668779e-01
1.666666666666665e-01 1.666666666666666e-01 -1.666666666665234e-01
1.666666666666664e-01 -1.666666666666665e-01 -1.666666666666166e-01
-1.666666666665663e-01 -1.666666666666666e-01 1.666666666668778e-01
-1.666666666665058e-01 1.666666666666665e-01 1.666666666669104e-01
-1.666666666665666e-01 1.666666666666666e-01 -1.666666666666168e-01
-1.666666666665060e-01 -1.666666666666665e-01 -1.666666666666491e-01
1.666666666666667e-01 -5.000000000000000e-01 1.666666666667344e-01
1.666666666666665e-01 -1.666666666666666e-01 1.666666666667846e-01
1.666666666666664e-01 -1.666666666666665e-01 -1.666666666666166e-01
1.666666666666664e-01 -5.000000000000000e-01 -1.666666666666667e-01
-1.666666666665989e-01 -5.000000000000000e-01 1.666666666668602e-01
-1.666666666665663e-01 -1.666666666666666e-01 1.666666666668778e-01
-1.666666666665060e-01 -1.666666666666665e-01 -1.666666666666491e-01
-1.666666666664732e-01 -5.000000000000000e-01 -1.666666666666665e-01
1.666666666666665e-01 1.666666666666664e-01 5.000000000000000e-01
1.666666666666667e-01 5.000000000000000e-01 5.000000000000000e-01
1.666666666666667e-01 5.000000000000000e-01 1.666666666669281e-01
1.666666666666665e-01 1.666666666666665e-01 1.666666666668779e-01
-1.666666666666667e-01 1.666666666666664e-01 5.000000000000000e-01
-1.666666666666666e-01 5.000000000000000e-01 5.000000000000000e-01
-1.666666666664732e-01 5.000000000000000e-01 1.666666666669280e-01
-1.666666666665058e-01 1.666666666666665e-01 1.666666666669104e-01
1.666666666666665e-01 -1.666666666666667e-01 5.000000000000000e-01
1.666666666666665e-01 1.666666666666664e-01 5.000000000000000e-01
1.666666666666665e-01 1.666666666666665e-01 1.666666666668779e-01
1.666666666666665e-01 -1.666666666666666e-01 1.666666666667846e-01
-1.666666666666667e-01 -1.666666666666667e-01 5.000000000000000e-01
-1.666666666666667e-01 1.666666666666664e-01 5.000000000000000e-01
-1.666666666665058e-01 1.666666666666665e-01 1.666666666669104e-01
-1.666666666665663e-01 -1.666666666666666e-01 1.666666666668778e-01
1.666666666666666e-01 -5.000000000000000e-01 5.000000000000000e-01
1.666666666666665e-01 -1.666666666666667e-01 5.000000000000000e-01
1.666666666666665e-01 -1.666666666666666e-01 1.666666666667846e-01
1.666666666666667e-01 -5.000000000000000e-01 1.666666666667344e-01
-1.666666666666667e-01 -5.000000000000000e-01 5.000000000000000e-01
-1.666666666666667e-01 -1.666666666666667e-01 5.000000000000000e-01
-1.666666666665663e-01 -1.666666666666666e-01 1.666666666668778e-01
-1.666666666665989e-01 -5.000000000000000e-01 1.666666666668602e-01
5.000000000000000e-01 1.666666666666664e-01 -1.666666666666667e-01
5.000000000000000e-01 5.000000000000000e-01 -1.666666666666667e-01
5.000000000000000e-01 5.000000000000000e-01 -5.000000000000000e-01
5.000000000000000e-01 1.666666666666666e-01 -5.000000000000000e-01
1.666666666666665e-01 1.666666666666666e-01 -1.666666666665234e-01
1.666666666666667e-01 5.000000000000000e-01 -1.666666666664732e-01
1.666666666666667e-01 5.000000000000000e-01 -5.000000000000000e-01
1.666666666666665e-01 1.666666666666667e-01 -5.000000000000000e-01
5.000000000000000e-01 -1.666666666664732e-01 -1.666666666666665e-01
5.000000000000000e-01 1.666666666666664e-01 -1.666666666666667e-01
5.000000000000000e-01 1.666666666666666e-01 -5.000000000000000e-01
5.000000000000000e-01 -1.666666666666667e-01 -5.000000000000000e-01
1.666666666666664e-01 -1.666666666666665e-01 -1.666666666666166e-01
1.666666666666665e-01 1.666666666666666e-01 -1.666666666665234e-01
1.666666666666665e-01 1.666666666666667e-01 -5.000000000000000e-01
1.666666666666665e-01 -1.666666666666664e-01 -5.000000000000000e-01
5.000000000000000e-01 -5.000000000000000e-01 -1.666666666666667e-01
5.000000000000000e-01 -1.666666666664732e-01 -1.666666666666665e-01
5.000000000000000e-01 -1.666666666666667e-01 -5.000000000000000e-01
5.000000000000000e-01 -5.000000000000000e-01 -5.000000000000000e-01
1.666666666666664e-01 -5.000000000000000e-01 -1.666666666666667e-01
1.666666666666664e-01 -1.666666666666665e-01 -1.666666666666166e-01
1.666666666666665e-01 -1.666666666666664e-01 -5.000000000000000e-01
1.666666666666666e-01 -5.000000000000000e-01 -5.000000000000000e-01
5.000000000000000e-01 1.666666666666667e-01 1.666666666667344e-01
5.000000000000000e-01 5.000000000000000e-01 1.666666666666666e-01
5.000000000000000e-01 5.000000000000000e-01 -1.666666666666667e-01
5.000000000000000e-01 1.666666666666664e-01 -1.666666666666667e-01
1.666666666666665e-01 1.666666666666665e-01 1.666666666668779e-01
1.666666666666667e-01 5.000000000000000e-01 1.666666666669281e-01
1.666666666666667e-01 5.000000000000000e-01 -1.666666666664732e-01
1.666666666666665e-01 1.666666666666666e-01 -1.666666666665234e-01
5.000000000000000e-01 -1.666666666665989e-01 1.666666666668602e-01
5.000000000000000e-01 1.666666666666667e-01 1.666666666667344e-01
5.000000000000000e-01 1.666666666666664e-01 -1.666666666666667e-01
5.000000000000000e-01 -1.666666666664732e-01 -1.666666666666665e-01
1.666666666666665e-01 -1.666666666666666e-01 1.666666666667846e-01
1.666666666666665e-01 1.666666666666665e-01 1.666666666668779e-01
1.666666666666665e-01 1.666666666666666e-01 -1.666666666665234e-01
1.666666666666664e-01 -1.666666666666665e-01 -1.666666666666166e-01
5.000000000000000e-01 -5.000000000000000e-01 1.666666666666666e-01
5.000000000000000e-01 -1.666666666665989e-01 1.666666666668602e-01
5.000000000000000e-01 -1.666666666664732e-01 -1.666666666666665e-01
5.000000000000000e-01 -5.000000000000000e-01 -1.666666666666667e-01
1.666666666666667e-01 -5.000000000000000e-01 1.666666666667344e-01
1.666666666666665e-01 -1.666666666666666e-01 1.666666666667846e-01
1.666666666666664e-01 -1.666666666666665e-01 -1.666666666666166e-01
1.666666666666664e-01 -5.000000000000000e-01 -1.666666666666667e-01
5.000000000000000e-01 1.666666666666666e-01 5.000000000000000e-01
5.000000000000000e-01 5.000000000000000e-01 5.000000000000000e-01
5.000000000000000e-01 5.000000000000000e-01 1.666666666666666e-01
5.000000000000000e-01 1.666666666666667e-01 1.666666666667344e-01
1.666666666666665e-01 1.666666666666664e-01 5.000000000000000e-01
1.666666666666667e-01 5.000000000000000e-01 5.000000000000000e-01
1.666666666666667e-01 5.000000000000000e-01 1.666666666669281e-01
1.666666666666665e-01 1.666666666666665e-01 1.666666666668779e-01
5.000000000000000e-01 -1.666666666666667e-01 5.000000000000000e-01
5.000000000000000e-01 1.666666666666666e-01 5.000000000000000e-01
5.000000000000000e-01 1.666666666666667e-01 1.666666666667344e-01
5.000000000000000e-01 -1.666666666665989e-01 1.666666666668602e-01
1.666666666666665e-01 -1.666666666666667e-01 5.000000000000000e-01
1.666666666666665e-01 1.666666666666664e-01 5.000000000000000e-01
1.666666666666665e-01 1.666666666666665e-01 1.666666666668779e-01
1.666666666666665e-01 -1.666666666666666e-01 1.666666666667846e-01
5.000000000000000e-01 -5.000000000000000e-01 5.000000000000000e-01
5.000000000000000e-01 -1.666666666666667e-01 5.000000000000000e-01
5.000000000000000e-01 -1.666666666665989e-01 1.666666666668602e-01
5.000000000000000e-01 -5.000000000000000e-01 1.666666666666666e-01
1.666666666666666e-01 -5.000000000000000e-01 5.000000000000000e-01
1.666666666666665e-01 -1.666666666666667e-01 5.000000000000000e-01
1.666666666666665e-01 -1.666666666666666e-01 1.666666666667846e-01
1.666666666666667e-01 -5.000000000000000e-01 1.666666666667344e-01
        </DataArray>
      </Points>

      <Cells>
        <DataArray type="Int32" Name="connectivity" format="ascii">
0 1 2 3 4 5 6 7 8 9 10 11 12 13 14 15 16 17 18 19 20 21 22 23 24 25 26 27 28 29 30 31 32 33 34 35 36 37 38 39 40 41 42 43 44 45 46 47 48 49 50 51 52 53 54 55 56 57 58 59 60 61 62 63 64 65 66 67 68 69 70 71 72 73 74 75 76 77 78 79 80 81 82 83 84 85 86 87 88 89 90 91 92 93 94 95 96 97 98 99 100 101 102 103 104 105 106 107 108 109 110 111 112 113 114 115 116 117 118 119 120 121 122 123 124 125 126 127 128 129 130 131 132 133 134 135 136 137 138 139 140 141 142 143 144 145 146 147 148 149 150 151 152 153 154 155 156 157 158 159 160 161 162 163 164 165 166 167 168 169 170 171 172 173 174 175 176 177 178 179 180 181 182 183 184 185 186 187 188 189 190 191 192 193 194 195 196 197 198 199 200 201 202 203 204 205 206 207 208 209 210 211 212 213 214 215 
        </DataArray>
        <DataArray type="Int32" Name="offsets" format="ascii">
8 16 24 32 40 48 56 64 72 80 88 96 104 112 120 128 136 144 152 160 168 176 184 192 200 208 216 
        </DataArray>
        <DataArray type="UInt8" Name="types" format="ascii">
12 12 12 12 12 12 12 12 12 12 12 12 12 12 12 12 12 12 12 12 12 12 12 12 12 12 12 
        </DataArray>
      </Cells>

  <PointData>
        <DataArray type="Float64" Name="rve_elem_3_gp_ 0_displacement" NumberOfComponents="3" format="ascii">
5.279714568951568e-04 -5.279714568955116e-04 -3.552953885565818e-03
5.279714568949698e-04 -1.583914370685672e-03 -3.552953885561233e-03
5.279714568951694e-04 -1.583914370685676e-03 -1.065886165668819e-02
5.279714568951789e-04 -5.279714568952303e-04 -1.065886165668827e-02
1.583914370685601e-03 -5.279714568952298e-04 -3.552953885558691e-03
1.583914370685592e-03 -1.583914370685675e-03 -3.552953885562733e-03
1.583914370685578e-03 -1.583914370685679e-03 -1.065886165668825e-02
1.583914370685588e-03 -5.279714568952336e-04 -1.065886165668833e-02
5.279714568949331e-04 5.279714568955022e-04 -3.552953885566527e-03
5.279714568951568e-04 -5.279714568955116e-04 -3.552953885565818e-03
5.279714568951789e-04 -5.279714568952303e-04 -1.065886165668827e-02
5.279714568951883e-04 5.279714568952146e-04 -1.065886165668835e-02
1.583914370685611e-03 5.279714568950023e-04 -3.552953885561465e-03
1.583914370685601e-03 -5.279714568952298e-04 -3.552953885558691e-03
1.583914370685588e-03 -5.279714568952336e-04 -1.065886165668833e-02
1.583914370685597e-03 5.279714568952120e-04 -1.065886165668842e-02
5.279714568945983e-04 1.583914370685665e-03 -3.552953885562913e-03
5.279714568949331e-04 5.279714568955022e-04 -3.552953885566527e-03
5.279714568951883e-04 5.279714568952146e-04 -1.065886165668835e-02
5.279714568951975e-04 1.583914370685661e-03 -1.065886165668844e-02
1.583914370685620e-03 1.583914370685661e-03 -3.552953885562983e-03
1.583914370685611e-03 5.279714568950023e-04 -3.552953885561465e-03
1.583914370685597e-03 5.279714568952120e-04 -1.065886165668842e-02
1.583914370685606e-03 1.583914370685658e-03 -1.065886165668850e-02
5.279714568949554e-04 -5.279714568954747e-04 3.552953885572083e-03
5.279714568945845e-04 -1.583914370685668e-03 3.552953885568423e-03
5.279714568949698e-04 -1.583914370685672e-03 -3.552953885561233e-03
5.279714568951568e-04 -5.279714568955116e-04 -3.552953885565818e-03
1.583914370685615e-03 -5.279714568952259e-04 3.552953885568277e-03
1.583914370685606e-03 -1.583914370685671e-03 3.552953885562786e-03
1.583914370685592e-03 -1.583914370685675e-03 -3.552953885562733e-03
1.583914370685601e-03 -5.279714568952298e-04 -3.552953885558691e-03
5.279714568951596e-04 5.279714568954692e-04 3.552953885571296e-03
5.279714568949554e-04 -5.279714568954747e-04 3.552953885572083e-03
5.279714568951568e-04 -5.279714568955116e-04 -3.552953885565818e-03
5.279714568949331e-04 5.279714568955022e-04 -3.552953885566527e-03
1.583914370685624e-03 5.279714568946070e-04 3.552953885568192e-03
1.583914370685615e-03 -5.279714568952259e-04 3.552953885568277e-03
1.583914370685601e-03 -5.279714568952298e-04 -3.552953885558691e-03
1.583914370685611e-03 5.279714568950023e-04 -3.552953885561465e-03
5.279714568950104e-04 1.583914370685669e-03 3.552953885566728e-03
5.279714568951596e-04 5.279714568954692e-04 3.552953885571296e-03
5.279714568949331e-04 5.279714568955022e-04 -3.552953885566527e-03
5.279714568945983e-04 1.583914370685665e-03 -3.552953885562913e-03
1.583914370685634e-03 1.583914370685665e-03 3.552953885562536e-03
1.583914370685624e-03 5.279714568946070e-04 3.552953885568192e-03
1.583914370685611e-03 5.279714568950023e-04 -3.552953885561465e-03
1.583914370685620e-03 1.583914370685661e-03 -3.552953885562983e-03
5.279714568952206e-04 -5.279714568952179e-04 1.065886165668829e-02
5.279714568952110e-04 -1.583914370685664e-03 1.065886165668837e-02
5.279714568945845e-04 -1.583914370685668e-03 3.552953885568423e-03
5.279714568949554e-04 -5.279714568954747e-04 3.552953885572083e-03
1.583914370685629e-03 -5.279714568952221e-04 1.065886165668822e-02
1.583914370685620e-03 -1.583914370685668e-03 1.065886165668831e-02
1.583914370685606e-03 -1.583914370685671e-03 3.552953885562786e-03
1.583914370685615e-03 -5.279714568952259e-04 3.552953885568277e-03
5.279714568952299e-04 5.279714568952271e-04 1.065886165668820e-02
5.279714568952206e-04 -5.279714568952179e-04 1.065886165668829e-02
5.279714568949554e-04 -5.279714568954747e-04 3.552953885572083e-03
5.279714568951596e-04 5.279714568954692e-04 3.552953885571296e-03
1.583914370685638e-03 5.279714568952235e-04 1.065886165668814e-02
1.583914370685629e-03 -5.279714568952221e-04 1.065886165668822e-02
1.583914370685615e-03 -5.279714568952259e-04 3.552953885568277e-03
1.583914370685624e-03 5.279714568946070e-04 3.552953885568192e-03
5.279714568952391e-04 1.583914370685673e-03 1.065886165668812e-02
5.279714568952299e-04 5.279714568952271e-04 1.065886165668820e-02
5.279714568951596e-04 5.279714568954692e-04 3.552953885571296e-03
5.279714568950104e-04 1.583914370685669e-03 3.552953885566728e-03
1.583914370685648e-03 1.583914370685669e-03 1.065886165668806e-02
1.583914370685638e-03 5.279714568952235e-04 1.065886165668814e-02
1.583914370685624e-03 5.279714568946070e-04 3.552953885568192e-03
1.583914370685634e-03 1.583914370685665e-03 3.552953885562536e-03
-5.279714568954781e-04 -5.279714568954600e-04 -3.552953885563738e-03
-5.279714568952252e-04 -1.583914370685669e-03 -3.552953885558478e-03
-5.279714568952391e-04 -1.583914370685673e-03 -1.065886165668812e-02
-5.279714568952292e-04 -5.279714568952271e-04 -1.065886165668820e-02
5.279714568951568e-04 -5.279714568955116e-04 -3.552953885565818e-03
5.279714568949698e-04 -1.583914370685672e-03 -3.552953885561233e-03
5.279714568951694e-04 -1.583914370685676e-03 -1.065886165668819e-02
5.279714568951789e-04 -5.279714568952303e-04 -1.065886165668827e-02
-5.279714568954599e-04 5.279714568954617e-04 -3.552953885565809e-03
-5.279714568954781e-04 -5.279714568954600e-04 -3.552953885563738e-03
-5.279714568952292e-04 -5.279714568952271e-04 -1.065886165668820e-02
-5.279714568952199e-04 5.279714568952179e-04 -1.065886165668829e-02
5.279714568949331e-04 5.279714568955022e-04 -3.552953885566527e-03
5.279714568951568e-04 -5.279714568955116e-04 -3.552953885565818e-03
5.279714568951789e-04 -5.279714568952303e-04 -1.065886165668827e-02
5.279714568951883e-04 5.279714568952146e-04 -1.065886165668835e-02
-5.279714568951965e-04 1.583914370685668e-03 -3.552953885562853e-03
-5.279714568954599e-04 5.279714568954617e-04 -3.552953885565809e-03
-5.279714568952199e-04 5.279714568952179e-04 -1.065886165668829e-02
-5.279714568952110e-04 1.583914370685664e-03 -1.065886165668837e-02
5.279714568945983e-04 1.583914370685665e-03 -3.552953885562913e-03
5.279714568949331e-04 5.279714568955022e-04 -3.552953885566527e-03
5.279714568951883e-04 5.279714568952146e-04 -1.065886165668835e-02
5.279714568951975e-04 1.583914370685661e-03 -1.065886165668844e-02
-5.279714568954462e-04 -5.279714568955001e-04 3.552953885571455e-03
-5.279714568952114e-04 -1.583914370685665e-03 3.552953885568490e-03
-5.279714568952252e-04 -1.583914370685669e-03 -3.552953885558478e-03
-5.279714568954781e-04 -5.279714568954600e-04 -3.552953885563738e-03
5.279714568949554e-04 -5.279714568954747e-04 3.552953885572083e-03
5.279714568945845e-04 -1.583914370685668e-03 3.552953885568423e-03
5.279714568949698e-04 -1.583914370685672e-03 -3.552953885561233e-03
5.279714568951568e-04 -5.279714568955116e-04 -3.552953885565818e-03
-5.279714568954213e-04 5.279714568954905e-04 3.552953885569388e-03
-5.279714568954462e-04 -5.279714568955001e-04 3.552953885571455e-03
-5.279714568954781e-04 -5.279714568954600e-04 -3.552953885563738e-03
-5.279714568954599e-04 5.279714568954617e-04 -3.552953885565809e-03
5.279714568951596e-04 5.279714568954692e-04 3.552953885571296e-03
5.279714568949554e-04 -5.279714568954747e-04 3.552953885572083e-03
5.279714568951568e-04 -5.279714568955116e-04 -3.552953885565818e-03
5.279714568949331e-04 5.279714568955022e-04 -3.552953885566527e-03
-5.279714568951836e-04 1.583914370685672e-03 3.552953885564111e-03
-5.279714568954213e-04 5.279714568954905e-04 3.552953885569388e-03
-5.279714568954599e-04 5.279714568954617e-04 -3.552953885565809e-03
-5.279714568951965e-04 1.583914370685668e-03 -3.552953885562853e-03
5.279714568950104e-04 1.583914370685669e-03 3.552953885566728e-03
5.279714568951596e-04 5.279714568954692e-04 3.552953885571296e-03
5.279714568949331e-04 5.279714568955022e-04 -3.552953885566527e-03
5.279714568945983e-04 1.583914370685665e-03 -3.552953885562913e-03
-5.279714568951876e-04 -5.279714568952146e-04 1.065886165668835e-02
-5.279714568951975e-04 -1.583914370685661e-03 1.065886165668844e-02
-5.279714568952114e-04 -1.583914370685665e-03 3.552953885568490e-03
-5.279714568954462e-04 -5.279714568955001e-04 3.552953885571455e-03
5.279714568952206e-04 -5.279714568952179e-04 1.065886165668829e-02
5.279714568952110e-04 -1.583914370685664e-03 1.065886165668837e-02
5.279714568945845e-04 -1.583914370685668e-03 3.552953885568423e-03
5.279714568949554e-04 -5.279714568954747e-04 3.552953885572083e-03
-5.279714568951783e-04 5.279714568952303e-04 1.065886165668827e-02
-5.279714568951876e-04 -5.279714568952146e-04 1.065886165668835e-02
-5.279714568954462e-04 -5.279714568955001e-04 3.552953885571455e-03
-5.279714568954213e-04 5.279714568954905e-04 3.552953885569388e-03
5.279714568952299e-04 5.279714568952271e-04 1.065886165668820e-02
5.279714568952206e-04 -5.279714568952179e-04 1.065886165668829e-02
5.279714568949554e-04 -5.279714568954747e-04 3.552953885572083e-03
5.279714568951596e-04 5.279714568954692e-04 3.552953885571296e-03
-5.279714568951694e-04 1.583914370685676e-03 1.065886165668819e-02
-5.279714568951783e-04 5.279714568952303e-04 1.065886165668827e-02
-5.279714568954213e-04 5.279714568954905e-04 3.552953885569388e-03
-5.279714568951836e-04 1.583914370685672e-03 3.552953885564111e-03
5.279714568952391e-04 1.583914370685673e-03 1.065886165668812e-02
5.279714568952299e-04 5.279714568952271e-04 1.065886165668820e-02
5.279714568951596e-04 5.279714568954692e-04 3.552953885571296e-03
5.279714568950104e-04 1.583914370685669e-03 3.552953885566728e-03
-1.583914370685624e-03 -5.279714568952191e-04 -3.552953885562622e-03
-1.583914370685634e-03 -1.583914370685665e-03 -3.552953885562538e-03
-1.583914370685648e-03 -1.583914370685669e-03 -1.065886165668806e-02
-1.583914370685638e-03 -5.279714568952235e-04 -1.065886165668814e-02
-5.279714568954781e-04 -5.279714568954600e-04 -3.552953885563738e-03
-5.279714568952252e-04 -1.583914370685669e-03 -3.552953885558478e-03
-5.279714568952391e-04 -1.583914370685673e-03 -1.065886165668812e-02
-5.279714568952292e-04 -5.279714568952271e-04 -1.065886165668820e-02
-1.583914370685615e-03 5.279714568946129e-04 -3.552953885562700e-03
-1.583914370685624e-03 -5.279714568952191e-04 -3.552953885562622e-03
-1.583914370685638e-03 -5.279714568952235e-04 -1.065886165668814e-02
-1.583914370685629e-03 5.279714568952221e-04 -1.065886165668822e-02
-5.279714568954599e-04 5.279714568954617e-04 -3.552953885565809e-03
-5.279714568954781e-04 -5.279714568954600e-04 -3.552953885563738e-03
-5.279714568952292e-04 -5.279714568952271e-04 -1.065886165668820e-02
-5.279714568952199e-04 5.279714568952179e-04 -1.065886165668829e-02
-1.583914370685606e-03 1.583914370685671e-03 -3.552953885562788e-03
-1.583914370685615e-03 5.279714568946129e-04 -3.552953885562700e-03
-1.583914370685629e-03 5.279714568952221e-04 -1.065886165668822e-02
-1.583914370685620e-03 1.583914370685668e-03 -1.065886165668831e-02
-5.279714568951965e-04 1.583914370685668e-03 -3.552953885562853e-03
-5.279714568954599e-04 5.279714568954617e-04 -3.552953885565809e-03
-5.279714568952199e-04 5.279714568952179e-04 -1.065886165668829e-02
-5.279714568952110e-04 1.583914370685664e-03 -1.065886165668837e-02
-1.583914370685611e-03 -5.279714568952161e-04 3.552953885564343e-03
-1.583914370685620e-03 -1.583914370685661e-03 3.552953885562980e-03
-1.583914370685634e-03 -1.583914370685665e-03 -3.552953885562538e-03
-1.583914370685624e-03 -5.279714568952191e-04 -3.552953885562622e-03
-5.279714568954462e-04 -5.279714568955001e-04 3.552953885571455e-03
-5.279714568952114e-04 -1.583914370685665e-03 3.552953885568490e-03
-5.279714568952252e-04 -1.583914370685669e-03 -3.552953885558478e-03
-5.279714568954781e-04 -5.279714568954600e-04 -3.552953885563738e-03
-1.583914370685601e-03 5.279714568950150e-04 3.552953885566941e-03
-1.583914370685611e-03 -5.279714568952161e-04 3.552953885564343e-03
-1.583914370685624e-03 -5.279714568952191e-04 -3.552953885562622e-03
-1.583914370685615e-03 5.279714568946129e-04 -3.552953885562700e-03
-5.279714568954213e-04 5.279714568954905e-04 3.552953885569388e-03
-5.279714568954462e-04 -5.279714568955001e-04 3.552953885571455e-03
-5.279714568954781e-04 -5.279714568954600e-04 -3.552953885563738e-03
-5.279714568954599e-04 5.279714568954617e-04 -3.552953885565809e-03
-1.583914370685592e-03 1.583914370685675e-03 3.552953885562731e-03
-1.583914370685601e-03 5.279714568950150e-04 3.552953885566941e-03