<?xml version="1.0" ?> 
<!-- 
# vtk DataFile Version 3.0
-->
<VTKFile type="UnstructuredGrid" version="0.1" compressor="vtkZLibDataCompressor" byte_order="LittleEndian">
  <UnstructuredGrid>
    <FieldData>
      <DataArray type="Float64" Name="TIME" NumberOfTuples="1" format="ascii">
0.000000000000000e+00 
      </DataArray>
      <DataArray type="Float64" Name="tangent_stiffness_tensor_cmat" NumberOfTuples="1" NumberOfComponents="36" format="ascii">
1.111111111111111e+01 2.777777777777779e+00 2.777777777777779e+00 -1.088883665722304e-17 -5.821310668856484e-17 -3.747398770338802e-16 2.777777777777778e+00 1.111111111111111e+01 2.777777777777778e+00 4.809176152598844e-17 -9.242405718428606e-17 1.644291672425414e-17 2.777777777777778e+00 2.777777777777778e+00 1.111111111111112e+01 3.713972334999977e-17 -1.826296779350800e-16 -2.741259154272254e-16 8.972512494943178e-17 -1.392583738795068e-16 4.012324069259488e-17 4.166666666666666e+00 -1.387592556692072e-16 1.986022322300169e-16 -1.040834085586085e-16 2.788067666747507e-16 -1.063018449921005e-16 -7.800832890996067e-17 4.166666666666667e+00 -8.405488282843834e-17 -3.331065136104369e-16 -3.425731212290478e-17 -1.145313556373591e-16 3.092723838794385e-17 -8.813082366231026e-17 4.166666666666668e+00 
      </DataArray>
    </FieldData>

    <Piece NumberOfPoints="216" NumberOfCells="27" >
      <Points>
        <DataArray type="Float64" NumberOfComponents="3" format="ascii">
-1.666666666665666e-01 1.666666666666666e-01 -1.666666666666168e-01
-1.666666666665992e-01 5.000000000000000e-01 -1.666666666665994e-01
-1.666666666666666e-01 5.000000000000000e-01 -5.000000000000000e-01
-1.666666666666667e-01 1.666666666666667e-01 -5.000000000000000e-01
-5.000000000000000e-01 1.666666666666667e-01 -1.666666666664732e-01
-5.000000000000000e-01 5.000000000000000e-01 -1.666666666666667e-01
-5.000000000000000e-01 5.000000000000000e-01 -5.000000000000000e-01
-5.000000000000000e-01 1.666666666666667e-01 -5.000000000000000e-01
-1.666666666665060e-01 -1.666666666666665e-01 -1.666666666666491e-01
-1.666666666665666e-01 1.666666666666666e-01 -1.666666666666168e-01
-1.666666666666667e-01 1.666666666666667e-01 -5.000000000000000e-01
-1.666666666666667e-01 -1.666666666666664e-01 -5.000000000000000e-01
-5.000000000000000e-01 -1.666666666665992e-01 -1.666666666665994e-01
-5.000000000000000e-01 1.666666666666667e-01 -1.666666666664732e-01
-5.000000000000000e-01 1.666666666666667e-01 -5.000000000000000e-01
-5.000000000000000e-01 -1.666666666666666e-01 -5.000000000000000e-01
-1.666666666664732e-01 -5.000000000000000e-01 -1.666666666666665e-01
-1.666666666665060e-01 -1.666666666666665e-01 -1.666666666666491e-01
-1.666666666666667e-01 -1.666666666666664e-01 -5.000000000000000e-01
-1.666666666666667e-01 -5.000000000000000e-01 -5.000000000000000e-01
-5.000000000000000e-01 -5.000000000000000e-01 -1.666666666666667e-01
-5.000000000000000e-01 -1.666666666665992e-01 -1.666666666665994e-01
-5.000000000000000e-01 -1.666666666666666e-01 -5.000000000000000e-01
-5.000000000000000e-01 -5.000000000000000e-01 -5.000000000000000e-01
-1.666666666665058e-01 1.666666666666665e-01 1.666666666669104e-01
-1.666666666664732e-01 5.000000000000000e-01 1.666666666669280e-01
-1.666666666665992e-01 5.000000000000000e-01 -1.666666666665994e-01
-1.666666666665666e-01 1.666666666666666e-01 -1.666666666666168e-01
-5.000000000000000e-01 1.666666666666667e-01 1.666666666669281e-01
-5.000000000000000e-01 5.000000000000000e-01 1.666666666666666e-01
-5.000000000000000e-01 5.000000000000000e-01 -1.666666666666667e-01
-5.000000000000000e-01 1.666666666666667e-01 -1.666666666664732e-01
-1.666666666665663e-01 -1.666666666666666e-01 1.666666666668778e-01
-1.666666666665058e-01 1.666666666666665e-01 1.666666666669104e-01
-1.666666666665666e-01 1.666666666666666e-01 -1.666666666666168e-01
-1.666666666665060e-01 -1.666666666666665e-01 -1.666666666666491e-01
-5.000000000000000e-01 -1.666666666664732e-01 1.666666666669280e-01
-5.000000000000000e-01 1.666666666666667e-01 1.666666666669281e-01
-5.000000000000000e-01 1.666666666666667e-01 -1.666666666664732e-01
-5.000000000000000e-01 -1.666666666665992e-01 -1.666666666665994e-01
-1.666666666665989e-01 -5.000000000000000e-01 1.666666666668602e-01
-1.666666666665663e-01 -1.666666666666666e-01 1.666666666668778e-01
-1.666666666665060e-01 -1.666666666666665e-01 -1.666666666666491e-01
-1.666666666664732e-01 -5.000000000000000e-01 -1.666666666666665e-01
-5.000000000000000e-01 -5.000000000000000e-01 1.666666666666666e-01
-5.000000000000000e-01 -1.666666666664732e-01 1.666666666669280e-01
-5.000000000000000e-01 -1.666666666665992e-01 -1.666666666665994e-01
-5.000000000000000e-01 -5.000000000000000e-01 -1.666666666666667e-01
-1.666666666666667e-01 1.666666666666664e-01 5.000000000000000e-01
-1.666666666666666e-01 5.000000000000000e-01 5.000000000000000e-01
-1.666666666664732e-01 5.000000000000000e-01 1.666666666669280e-01
-1.666666666665058e-01 1.666666666666665e-01 1.666666666669104e-01
-5.000000000000000e-01 1.666666666666667e-01 5.000000000000000e-01
-5.000000000000000e-01 5.000000000000000e-01 5.000000000000000e-01
-5.000000000000000e-01 5.000000000000000e-01 1.666666666666666e-01
-5.000000000000000e-01 1.666666666666667e-01 1.666666666669281e-01
-1.666666666666667e-01 -1.666666666666667e-01 5.000000000000000e-01
-1.666666666666667e-01 1.666666666666664e-01 5.000000000000000e-01
-1.666666666665058e-01 1.666666666666665e-01 1.666666666669104e-01
-1.666666666665663e-01 -1.666666666666666e-01 1.666666666668778e-01
-5.000000000000000e-01 -1.666666666666666e-01 5.000000000000000e-01
-5.000000000000000e-01 1.666666666666667e-01 5.000000000000000e-01
-5.000000000000000e-01 1.666666666666667e-01 1.666666666669281e-01
-5.000000000000000e-01 -1.666666666664732e-01 1.666666666669280e-01
-1.666666666666667e-01 -5.000000000000000e-01 5.000000000000000e-01
-1.666666666666667e-01 -1.666666666666667e-01 5.000000000000000e-01
-1.666666666665663e-01 -1.666666666666666e-01 1.666666666668778e-01
-1.666666666665989e-01 -5.000000000000000e-01 1.666666666668602e-01
-5.000000000000000e-01 -5.000000000000000e-01 5.000000000000000e-01
-5.000000000000000e-01 -1.666666666666666e-01 5.000000000000000e-01
-5.000000000000000e-01 -1.666666666664732e-01 1.666666666669280e-01
-5.000000000000000e-01 -5.000000000000000e-01 1.666666666666666e-01
1.666666666666665e-01 1.666666666666666e-01 -1.666666666665234e-01
1.666666666666667e-01 5.000000000000000e-01 -1.666666666664732e-01
1.666666666666667e-01 5.000000000000000e-01 -5.000000000000000e-01
1.666666666666665e-01 1.666666666666667e-01 -5.000000000000000e-01
-1.666666666665666e-01 1.666666666666666e-01 -1.666666666666168e-01
-1.666666666665992e-01 5.000000000000000e-01 -1.666666666665994e-01
-1.666666666666666e-01 5.000000000000000e-01 -5.000000000000000e-01
-1.666666666666667e-01 1.666666666666667e-01 -5.000000000000000e-01
1.666666666666664e-01 -1.666666666666665e-01 -1.666666666666166e-01
1.666666666666665e-01 1.666666666666666e-01 -1.666666666665234e-01
1.666666666666665e-01 1.666666666666667e-01 -5.000000000000000e-01
1.666666666666665e-01 -1.666666666666664e-01 -5.000000000000000e-01
-1.666666666665060e-01 -1.666666666666665e-01 -1.666666666666491e-01
-1.666666666665666e-01 1.666666666666666e-01 -1.666666666666168e-01
-1.666666666666667e-01 1.666666666666667e-01 -5.000000000000000e-01
-1.666666666666667e-01 -1.666666666666664e-01 -5.000000000000000e-01
1.666666666666664e-01 -5.000000000000000e-01 -1.666666666666667e-01
1.666666666666664e-01 -1.666666666666665e-01 -1.666666666666166e-01
1.666666666666665e-01 -1.666666666666664e-01 -5.000000000000000e-01
1.666666666666666e-01 -5.000000000000000e-01 -5.000000000000000e-01
-1.666666666664732e-01 -5.000000000000000e-01 -1.666666666666665e-01
-1.666666666665060e-01 -1.666666666666665e-01 -1.666666666666491e-01
-1.666666666666667e-01 -1.666666666666664e-01 -5.000000000000000e-01
-1.666666666666667e-01 -5.000000000000000e-01 -5.000000000000000e-01
1.666666666666665e-01 1.666666666666665e-01 1.666666666668779e-01
1.666666666666667e-01 5.000000000000000e-01 1.666666666669281e-01
1.666666666666667e-01 5.000000000000000e-01 -1.666666666664732e-01
1.666666666666665e-01 1.666666666666666e-01 -1.666666666665234e-01
-1.666666666665058e-01 1.666666666666665e-01 1.666666666669104e-01
-1.666666666664732e-01 5.000000000000000e-01 1.666666666669280e-01
-1.666666666665992e-01 5.000000000000000e-01 -1.666666666665994e-01
-1.666666666665666e-01 1.666666666666666e-01 -1.666666666666168e-01
1.666666666666665e-01 -1.666666666666666e-01 1.666666666667846e-01
1.666666666666665e-01 1.666666666666665e-01 1.666666666668779e-01
1.666666666666665e-01 1.666666666666666e-01 -1.666666666665234e-01
1.666666666666664e-01 -1.666666666666665e-01 -1.666666666666166e-01
-1.666666666665663e-01 -1.666666666666666e-01 1.666666666668778e-01
-1.666666666665058e-01 1.666666666666665e-01 1.666666666669104e-01
-1.666666666665666e-01 1.666666666666666e-01 -1.666666666666168e-01
-1.666666666665060e-01 -1.666666666666665e-01 -1.666666666666491e-01
1.666666666666667e-01 -5.000000000000000e-01 1.666666666667344e-01
1.666666666666665e-01 -1.666666666666666e-01 1.666666666667846e-01
1.666666666666664e-01 -1.666666666666665e-01 -1.666666666666166e-01
1.666666666666664e-01 -5.000000000000000e-01 -1.666666666666667e-01
-1.666666666665989e-01 -5.000000000000000e-01 1.666666666668602e-01
-1.666666666665663e-01 -1.666666666666666e-01 1.666666666668778e-01
-1.666666666665060e-01 -1.666666666666665e-01 -1.666666666666491e-01
-1.666666666664732e-01 -5.000000000000000e-01 -1.666666666666665e-01
1.666666666666665e-01 1.666666666666664e-01 5.000000000000000e-01
1.666666666666667e-01 5.000000000000000e-01 5.000000000000000e-01
1.666666666666667e-01 5.000000000000000e-01 1.666666666669281e-01
1.666666666666665e-01 1.666666666666665e-01 1.666666666668779e-01
-1.666666666666667e-01 1.666666666666664e-01 5.000000000000000e-01
-1.666666666666666e-01 5.000000000000000e-01 5.000000000000000e-01
-1.666666666664732e-01 5.000000000000000e-01 1.666666666669280e-01
-1.666666666665058e-01 1.666666666666665e-01 1.666666666669104e-01
1.666666666666665e-01 -1.666666666666667e-01 5.000000000000000e-01
1.666666666666665e-01 1.666666666666664e-01 5.000000000000000e-01
1.666666666666665e-01 1.666666666666665e-01 1.666666666668779e-01
1.666666666666665e-01 -1.666666666666666e-01 1.666666666667846e-01
-1.666666666666667e-01 -1.666666666666667e-01 5.000000000000000e-01
-1.666666666666667e-01 1.666666666666664e-01 5.000000000000000e-01
-1.666666666665058e-01 1.666666666666665e-01 1.666666666669104e-01
-1.666666666665663e-01 -1.666666666666666e-01 1.666666666668778e-01
1.666666666666666e-01 -5.000000000000000e-01 5.000000000000000e-01
1.666666666666665e-01 -1.666666666666667e-01 5.000000000000000e-01
1.666666666666665e-01 -1.666666666666666e-01 1.666666666667846e-01
1.666666666666667e-01 -5.000000000000000e-01 1.666666666667344e-01
-1.666666666666667e-01 -5.000000000000000e-01 5.000000000000000e-01
-1.666666666666667e-01 -1.666666666666667e-01 5.000000000000000e-01
-1.666666666665663e-01 -1.666666666666666e-01 1.666666666668778e-01
-1.666666666665989e-01 -5.000000000000000e-01 1.666666666668602e-01
5.000000000000000e-01 1.666666666666664e-01 -1.666666666666667e-01
5.000000000000000e-01 5.000000000000000e-01 -1.666666666666667e-01
5.000000000000000e-01 5.000000000000000e-01 -5.000000000000000e-01
5.000000000000000e-01 1.666666666666666e-01 -5.000000000000000e-01
1.666666666666665e-01 1.666666666666666e-01 -1.666666666665234e-01
1.666666666666667e-01 5.000000000000000e-01 -1.666666666664732e-01
1.666666666666667e-01 5.000000000000000e-01 -5.000000000000000e-01
1.666666666666665e-01 1.666666666666667e-01 -5.000000000000000e-01
5.000000000000000e-01 -1.666666666664732e-01 -1.666666666666665e-01
5.000000000000000e-01 1.666666666666664e-01 -1.666666666666667e-01
5.000000000000000e-01 1.666666666666666e-01 -5.000000000000000e-01
5.000000000000000e-01 -1.666666666666667e-01 -5.000000000000000e-01
1.666666666666664e-01 -1.666666666666665e-01 -1.666666666666166e-01
1.666666666666665e-01 1.666666666666666e-01 -1.666666666665234e-01
1.666666666666665e-01 1.666666666666667e-01 -5.000000000000000e-01
1.666666666666665e-01 -1.666666666666664e-01 -5.000000000000000e-01
5.000000000000000e-01 -5.000000000000000e-01 -1.666666666666667e-01
5.000000000000000e-01 -1.666666666664732e-01 -1.666666666666665e-01
5.000000000000000e-01 -1.666666666666667e-01 -5.000000000000000e-01
5.000000000000000e-01 -5.000000000000000e-01 -5.000000000000000e-01
1.666666666666664e-01 -5.000000000000000e-01 -1.666666666666667e-01
1.666666666666664e-01 -1.666666666666665e-01 -1.666666666666166e-01
1.666666666666665e-01 -1.666666666666664e-01 -5.000000000000000e-01
1.666666666666666e-01 -5.000000000000000e-01 -5.000000000000000e-01
5.000000000000000e-01 1.666666666666667e-01 1.666666666667344e-01
5.000000000000000e-01 5.000000000000000e-01 1.666666666666666e-01
5.000000000000000e-01 5.000000000000000e-01 -1.666666666666667e-01
5.000000000000000e-01 1.666666666666664e-01 -1.666666666666667e-01
1.666666666666665e-01 1.666666666666665e-01 1.666666666668779e-01
1.666666666666667e-01 5.000000000000000e-01 1.666666666669281e-01
1.666666666666667e-01 5.000000000000000e-01 -1.666666666664732e-01
1.666666666666665e-01 1.666666666666666e-01 -1.666666666665234e-01
5.000000000000000e-01 -1.666666666665989e-01 1.666666666668602e-01
5.000000000000000e-01 1.666666666666667e-01 1.666666666667344e-01
5.000000000000000e-01 1.666666666666664e-01 -1.666666666666667e-01
5.000000000000000e-01 -1.666666666664732e-01 -1.666666666666665e-01
1.666666666666665e-01 -1.666666666666666e-01 1.666666666667846e-01
1.666666666666665e-01 1.666666666666665e-01 1.666666666668779e-01
1.666666666666665e-01 1.666666666666666e-01 -1.666666666665234e-01
1.666666666666664e-01 -1.666666666666665e-01 -1.666666666666166e-01
5.000000000000000e-01 -5.000000000000000e-01 1.666666666666666e-01
5.000000000000000e-01 -1.666666666665989e-01 1.666666666668602e-01
5.000000000000000e-01 -1.666666666664732e-01 -1.666666666666665e-01
5.000000000000000e-01 -5.000000000000000e-01 -1.666666666666667e-01
1.666666666666667e-01 -5.000000000000000e-01 1.666666666667344e-01
1.666666666666665e-01 -1.666666666666666e-01 1.666666666667846e-01
1.666666666666664e-01 -1.666666666666665e-01 -1.666666666666166e-01
1.666666666666664e-01 -5.000000000000000e-01 -1.666666666666667e-01
5.000000000000000e-01 1.666666666666666e-01 5.000000000000000e-01
5.000000000000000e-01 5.000000000000000e-01 5.000000000000000e-01
5.000000000000000e-01 5.000000000000000e-01 1.666666666666666e-01
5.000000000000000e-01 1.666666666666667e-01 1.666666666667344e-01
1.666666666666665e-01 1.666666666666664e-01 5.000000000000000e-01
1.666666666666667e-01 5.000000000000000e-01 5.000000000000000e-01
1.666666666666667e-01 5.000000000000000e-01 1.666666666669281e-01
1.666666666666665e-01 1.666666666666665e-01 1.666666666668779e-01
5.000000000000000e-01 -1.666666666666667e-01 5.000000000000000e-01
5.000000000000000e-01 1.666666666666666e-01 5.000000000000000e-01
5.000000000000000e-01 1.666666666666667e-01 1.666666666667344e-01
5.000000000000000e-01 -1.666666666665989e-01 1.666666666668602e-01
1.666666666666665e-01 -1.666666666666667e-01 5.000000000000000e-01
1.666666666666665e-01 1.666666666666664e-01 5.000000000000000e-01
1.666666666666665e-01 1.666666666666665e-01 1.666666666668779e-01
1.666666666666665e-01 -1.666666666666666e-01 1.666666666667846e-01
5.000000000000000e-01 -5.000000000000000e-01 5.000000000000000e-01
5.000000000000000e-01 -1.666666666666667e-01 5.000000000000000e-01
5.000000000000000e-01 -1.666666666665989e-01 1.666666666668602e-01
5.000000000000000e-01 -5.000000000000000e-01 1.666666666666666e-01
1.666666666666666e-01 -5.000000000000000e-01 5.000000000000000e-01
1.666666666666665e-01 -1.666666666666667e-01 5.000000000000000e-01
1.666666666666665e-01 -1.666666666666666e-01 1.666666666667846e-01
1.666666666666667e-01 -5.000000000000000e-01 1.666666666667344e-01
        </DataArray>
      </Points>

      <Cells>
        <DataArray type="Int32" Name="connectivity" format="ascii">
0 1 2 3 4 5 6 7 8 9 10 11 12 13 14 15 16 17 18 19 20 21 22 23 24 25 26 27 28 29 30 31 32 33 34 35 36 37 38 39 40 41 42 43 44 45 46 47 48 49 50 51 52 53 54 55 56 57 58 59 60 61 62 63 64 65 66 67 68 69 70 71 72 73 74 75 76 77 78 79 80 81 82 83 84 85 86 87 88 89 90 91 92 93 94 95 96 97 98 99 100 101 102 103 104 105 106 107 108 109 110 111 112 113 114 115 116 117 118 119 120 121 122 123 124 125 126 127 128 129 130 131 132 133 134 135 136 137 138 139 140 141 142 143 144 145 146 147 148 149 150 151 152 153 154 155 156 157 158 159 160 161 162 163 164 165 166 167 168 169 170 171 172 173 174 175 176 177 178 179 180 181 182 183 184 185 186 187 188 189 190 191 192 193 194 195 196 197 198 199 200 201 202 203 204 205 206 207 208 209 210 211 212 213 214 215 
        </DataArray>
        <DataArray type="Int32" Name="offsets" format="ascii">
8 16 24 32 40 48 56 64 72 80 88 96 104 112 120 128 136 144 152 160 168 176 184 192 200 208 216 
        </DataArray>
        <DataArray type="UInt8" Name="types" format="ascii">
12 12 12 12 12 12 12 12 12 12 12 12 12 12 12 12 12 12 12 12 12 12 12 12 12 12 12 
        </DataArray>
      </Cells>

  <PointData>
        <DataArray type="Float64" Name="rve_elem_2_gp_ 0_displacement" NumberOfComponents="3" format="ascii">
0.000000000000000e+00 0.000000000000000e+00 0.000000000000000e+00
-8.095376221233055e-18 -4.327869600278737e-17 -5.541477770489613e-19
-5.782411586589364e-18 -2.018409662494525e-17 -5.541477770481478e-19
1.272130549049659e-17 1.682333752922663e-17 1.156482317317871e-18
4.741577501003138e-17 -4.900950769510325e-18 5.180077046319629e-18
2.891205793294679e-17 -4.190838492366880e-17 3.469446951953611e-18
3.122502256758253e-17 -1.881378554583163e-17 3.469446951953611e-18
4.972873964466847e-17 1.819364860834025e-17 5.180077046319629e-18
0.000000000000000e+00 0.000000000000000e+00 0.000000000000000e+00
0.000000000000000e+00 0.000000000000000e+00 0.000000000000000e+00
1.272130549049659e-17 1.682333752922663e-17 1.156482317317871e-18
3.122502256758252e-17 5.383077168339849e-17 2.867112411683887e-18
6.591949208711445e-17 3.210648338466282e-17 6.890707140685300e-18
4.741577501003138e-17 -4.900950769510325e-18 5.180077046319629e-18
4.972873964466847e-17 1.819364860834025e-17 5.180077046319629e-18
6.823245672175440e-17 5.520108276251213e-17 6.890707140685646e-18
4.741577501001125e-17 6.774360645973241e-17 4.577742506047569e-18
0.000000000000000e+00 0.000000000000000e+00 0.000000000000000e+00
3.122502256758252e-17 5.383077168339849e-17 2.867112411683887e-18
4.972873964466848e-17 9.083820583757039e-17 4.577742506049905e-18
8.442320916420461e-17 6.911391753884685e-17 8.601337235051663e-18
6.591949208711445e-17 3.210648338466282e-17 6.890707140685300e-18
6.823245672175440e-17 5.520108276251213e-17 6.890707140685646e-18
8.673617379884035e-17 9.220851691668402e-17 8.601337235051663e-18
0.000000000000000e+00 0.000000000000000e+00 0.000000000000000e+00
-1.040834085588414e-17 -6.637329538063851e-17 -5.541477770504824e-19
-8.095376221233055e-18 -4.327869600278737e-17 -5.541477770489613e-19
0.000000000000000e+00 0.000000000000000e+00 0.000000000000000e+00
4.510281037539517e-17 -2.799555014735221e-17 5.180077046319629e-18
2.659909329831104e-17 -6.500298430150597e-17 3.469446951953611e-18
2.891205793294679e-17 -4.190838492366880e-17 3.469446951953611e-18
4.741577501003138e-17 -4.900950769510325e-18 5.180077046319629e-18
0.000000000000000e+00 0.000000000000000e+00 0.000000000000000e+00
0.000000000000000e+00 0.000000000000000e+00 0.000000000000000e+00
0.000000000000000e+00 0.000000000000000e+00 0.000000000000000e+00
0.000000000000000e+00 0.000000000000000e+00 0.000000000000000e+00
6.360652745247037e-17 9.011884006798210e-18 6.890707140684653e-18
4.510281037539517e-17 -2.799555014735221e-17 5.180077046319629e-18
4.741577501003138e-17 -4.900950769510325e-18 5.180077046319629e-18
6.591949208711445e-17 3.210648338466282e-17 6.890707140685300e-18
4.510281037538812e-17 4.464900708188236e-17 4.577742506049087e-18
0.000000000000000e+00 0.000000000000000e+00 0.000000000000000e+00
0.000000000000000e+00 0.000000000000000e+00 0.000000000000000e+00
4.741577501001125e-17 6.774360645973241e-17 4.577742506047569e-18
8.211024452956887e-17 4.601931816100968e-17 8.601337235051663e-18
6.360652745247037e-17 9.011884006798210e-18 6.890707140684653e-18
6.591949208711445e-17 3.210648338466282e-17 6.890707140685300e-18
8.442320916420461e-17 6.911391753884685e-17 8.601337235051663e-18
5.782411586589376e-18 -5.246046060428486e-17 1.156482317317872e-18
-1.272130549049659e-17 -8.946789475845677e-17 -5.541477770481478e-19
-1.040834085588414e-17 -6.637329538063851e-17 -5.541477770504824e-19
0.000000000000000e+00 0.000000000000000e+00 0.000000000000000e+00
4.278984574076124e-17 -5.109014952517127e-17 5.180077046319629e-18
2.428612866367530e-17 -8.809758367934314e-17 3.469446951953611e-18
2.659909329831104e-17 -6.500298430150597e-17 3.469446951953611e-18
4.510281037539517e-17 -2.799555014735221e-17 5.180077046319629e-18
2.428612866367531e-17 -1.545302645011300e-17 2.867112411683889e-18
5.782411586589376e-18 -5.246046060428486e-17 1.156482317317872e-18
0.000000000000000e+00 0.000000000000000e+00 0.000000000000000e+00
0.000000000000000e+00 0.000000000000000e+00 0.000000000000000e+00
6.129356281784718e-17 -1.408271537099939e-17 6.890707140685646e-18
4.278984574076124e-17 -5.109014952517127e-17 5.180077046319629e-18
4.510281037539517e-17 -2.799555014735221e-17 5.180077046319629e-18
6.360652745247037e-17 9.011884006798210e-18 6.890707140684653e-18
4.278984574076125e-17 2.155440770405888e-17 4.577742506049905e-18
2.428612866367531e-17 -1.545302645011300e-17 2.867112411683889e-18
0.000000000000000e+00 0.000000000000000e+00 0.000000000000000e+00
4.510281037538812e-17 4.464900708188236e-17 4.577742506049087e-18
7.979727989493313e-17 2.292471878317251e-17 8.601337235051663e-18
6.129356281784718e-17 -1.408271537099939e-17 6.890707140685646e-18
6.360652745247037e-17 9.011884006798210e-18 6.890707140684653e-18
8.211024452956887e-17 4.601931816100968e-17 8.601337235051663e-18
0.000000000000000e+00 0.000000000000000e+00 0.000000000000000e+00
-4.510281037539833e-17 -4.464900708190945e-17 -4.577742506049905e-18
-4.278984574076125e-17 -2.155440770405888e-17 -4.577742506049905e-18
-2.428612866367528e-17 1.545302645011300e-17 -2.867112411683885e-18
0.000000000000000e+00 0.000000000000000e+00 0.000000000000000e+00
-8.095376221233055e-18 -4.327869600278737e-17 -5.541477770489613e-19
-5.782411586589364e-18 -2.018409662494525e-17 -5.541477770481478e-19
1.272130549049659e-17 1.682333752922663e-17 1.156482317317871e-18
0.000000000000000e+00 0.000000000000000e+00 0.000000000000000e+00
0.000000000000000e+00 0.000000000000000e+00 0.000000000000000e+00
-2.428612866367528e-17 1.545302645011300e-17 -2.867112411683885e-18
-5.782411586589352e-18 5.246046060428486e-17 -1.156482317317869e-18
0.000000000000000e+00 0.000000000000000e+00 0.000000000000000e+00
0.000000000000000e+00 0.000000000000000e+00 0.000000000000000e+00
1.272130549049659e-17 1.682333752922663e-17 1.156482317317871e-18
3.122502256758252e-17 5.383077168339849e-17 2.867112411683887e-18
1.040834085586087e-17 6.637329538061960e-17 5.541477770481501e-19
0.000000000000000e+00 0.000000000000000e+00 0.000000000000000e+00
-5.782411586589352e-18 5.246046060428486e-17 -1.156482317317869e-18
1.272130549049659e-17 8.946789475845677e-17 5.541477770481478e-19
4.741577501001125e-17 6.774360645973241e-17 4.577742506047569e-18
0.000000000000000e+00 0.000000000000000e+00 0.000000000000000e+00
3.122502256758252e-17 5.383077168339849e-17 2.867112411683887e-18
4.972873964466848e-17 9.083820583757039e-17 4.577742506049905e-18
0.000000000000000e+00 0.000000000000000e+00 0.000000000000000e+00
-4.741577501003455e-17 -6.774360645975134e-17 -4.577742506049905e-18
-4.510281037539833e-17 -4.464900708190945e-17 -4.577742506049905e-18
0.000000000000000e+00 0.000000000000000e+00 0.000000000000000e+00
0.000000000000000e+00 0.000000000000000e+00 0.000000000000000e+00
-1.040834085588414e-17 -6.637329538063851e-17 -5.541477770504824e-19
-8.095376221233055e-18 -4.327869600278737e-17 -5.541477770489613e-19
0.000000000000000e+00 0.000000000000000e+00 0.000000000000000e+00
0.000000000000000e+00 0.000000000000000e+00 0.000000000000000e+00
0.000000000000000e+00 0.000000000000000e+00 0.000000000000000e+00
0.000000000000000e+00 0.000000000000000e+00 0.000000000000000e+00
0.000000000000000e+00 0.000000000000000e+00 0.000000000000000e+00
0.000000000000000e+00 0.000000000000000e+00 0.000000000000000e+00
0.000000000000000e+00 0.000000000000000e+00 0.000000000000000e+00
0.000000000000000e+00 0.000000000000000e+00 0.000000000000000e+00
0.000000000000000e+00 0.000000000000000e+00 0.000000000000000e+00
8.095376221224624e-18 4.327869600277773e-17 5.541477770481467e-19
0.000000000000000e+00 0.000000000000000e+00 0.000000000000000e+00
0.000000000000000e+00 0.000000000000000e+00 0.000000000000000e+00
1.040834085586087e-17 6.637329538061960e-17 5.541477770481501e-19
4.510281037538812e-17 4.464900708188236e-17 4.577742506049087e-18
0.000000000000000e+00 0.000000000000000e+00 0.000000000000000e+00
0.000000000000000e+00 0.000000000000000e+00 0.000000000000000e+00
4.741577501001125e-17 6.774360645973241e-17 4.577742506047569e-18
-3.122502256758249e-17 -5.383077168339849e-17 -2.867112411683884e-18
-4.972873964466848e-17 -9.083820583757039e-17 -4.577742506049905e-18
-4.741577501003455e-17 -6.774360645975134e-17 -4.577742506049905e-18
0.000000000000000e+00 0.000000000000000e+00 0.000000000000000e+00
5.782411586589376e-18 -5.246046060428486e-17 1.156482317317872e-18
-1.272130549049659e-17 -8.946789475845677e-17 -5.541477770481478e-19
-1.040834085588414e-17 -6.637329538063851e-17 -5.541477770504824e-19
0.000000000000000e+00 0.000000000000000e+00 0.000000000000000e+00
-1.272130549049656e-17 -1.682333752922663e-17 -1.156482317317868e-18
-3.122502256758249e-17 -5.383077168339849e-17 -2.867112411683884e-18
0.000000000000000e+00 0.000000000000000e+00 0.000000000000000e+00
0.000000000000000e+00 0.000000000000000e+00 0.000000000000000e+00
2.428612866367531e-17 -1.545302645011300e-17 2.867112411683889e-18
5.782411586589376e-18 -5.246046060428486e-17 1.156482317317872e-18
0.000000000000000e+00 0.000000000000000e+00 0.000000000000000e+00
0.000000000000000e+00 0.000000000000000e+00 0.000000000000000e+00
5.782411586589364e-18 2.018409662494525e-17 5.541477770481478e-19
-1.272130549049656e-17 -1.682333752922663e-17 -1.156482317317868e-18
0.000000000000000e+00 0.000000000000000e+00 0.000000000000000e+00
8.095376221224624e-18 4.327869600277773e-17 5.541477770481467e-19
4.278984574076125e-17 2.155440770405888e-17 4.577742506049905e-18
2.428612866367531e-17 -1.545302645011300e-17 2.867112411683889e-18
0.000000000000000e+00 0.000000000000000e+00 0.000000000000000e+00
4.510281037538812e-17 4.464900708188236e-17 4.577742506049087e-18
-6.360652745248292e-17 -9.011884006837764e-18 -6.890707140685644e-18
-8.211024452956887e-17 -4.601931816100968e-17 -8.601337235051663e-18
-7.979727989493313e-17 -2.292471878317251e-17 -8.601337235051663e-18
-6.129356281784718e-17 1.408271537099939e-17 -6.890707140685646e-18
0.000000000000000e+00 0.000000000000000e+00 0.000000000000000e+00
-4.510281037539833e-17 -4.464900708190945e-17 -4.577742506049905e-18
-4.278984574076125e-17 -2.155440770405888e-17 -4.577742506049905e-18
-2.428612866367528e-17 1.545302645011300e-17 -2.867112411683885e-18
-4.510281037540773e-17 2.799555014731260e-17 -5.180077046320622e-18
-6.360652745248292e-17 -9.011884006837764e-18 -6.890707140685644e-18
-6.129356281784718e-17 1.408271537099939e-17 -6.890707140685646e-18
-4.278984574076124e-17 5.109014952517127e-17 -5.180077046319629e-18
0.000000000000000e+00 0.000000000000000e+00 0.000000000000000e+00
0.000000000000000e+00 0.000000000000000e+00 0.000000000000000e+00
-2.428612866367528e-17 1.545302645011300e-17 -2.867112411683885e-18
-5.782411586589352e-18 5.246046060428486e-17 -1.156482317317869e-18
-2.659909329831104e-17 6.500298430150597e-17 -3.469446951953611e-18
-4.510281037540773e-17 2.799555014731260e-17 -5.180077046320622e-18
-4.278984574076124e-17 5.109014952517127e-17 -5.180077046319629e-18
-2.428612866367530e-17 8.809758367934314e-17 -3.469446951953611e-18
1.040834085586087e-17 6.637329538061960e-17 5.541477770481501e-19
0.000000000000000e+00 0.000000000000000e+00 0.000000000000000e+00
-5.782411586589352e-18 5.246046060428486e-17 -1.156482317317869e-18
1.272130549049659e-17 8.946789475845677e-17 5.541477770481478e-19
-6.591949208711914e-17 -3.210648338467967e-17 -6.890707140685646e-18
-8.442320916420461e-17 -6.911391753884685e-17 -8.601337235051663e-18
-8.211024452956887e-17 -4.601931816100968e-17 -8.601337235051663e-18
-6.360652745248292e-17 -9.011884006837764e-18 -6.890707140685644e-18
0.000000000000000e+00 0.000000000000000e+00 0.000000000000000e+00
-4.741577501003455e-17 -6.774360645975134e-17 -4.577742506049905e-18
-4.510281037539833e-17 -4.464900708190945e-17 -4.577742506049905e-18
0.000000000000000e+00 0.000000000000000e+00 0.000000000000000e+00
-4.741577501003783e-17 4.900950769475984e-18 -5.180077046319976e-18
-6.591949208711914e-17 -3.210648338467967e-17 -6.890707140685646e-18
-6.360652745248292e-17 -9.011884006837764e-18 -6.890707140685644e-18
-4.510281037540773e-17 2.799555014731260e-17 -5.180077046320622e-18
0.000000000000000e+00 0.000000000000000e+00 0.000000000000000e+00
0.000000000000000e+00 0.000000000000000e+00 0.000000000000000e+00
0.000000000000000e+00 0.000000000000000e+00 0.000000000000000e+00
0.000000000000000e+00 0.000000000000000e+00 0.000000000000000e+00
-2.891205793294679e-17 4.190838492366880e-17 -3.469446951953611e-18
-4.741577501003783e-17 4.900950769475984e-18 -5.180077046319976e-18
-4.510281037540773e-17 2.799555014731260e-17 -5.180077046320622e-18
-2.659909329831104e-17 6.500298430150597e-17 -3.469446951953611e-18