<?xml version="1.0" ?> 
<!-- 
# vtk DataFile Version 3.0
-->
<VTKFile type="UnstructuredGrid" version="0.1" compressor="vtkZLibDataCompressor" byte_order="LittleEndian">
  <UnstructuredGrid>
    <FieldData>
      <DataArray type="Float64" Name="TIME" NumberOfTuples="1" format="ascii">
0.000000000000000e+00 
      </DataArray>
      <DataArray type="Float64" Name="tangent_stiffness_tensor_cmat" NumberOfTuples="1" NumberOfComponents="36" format="ascii">
1.111111111111111e+01 2.777777777777779e+00 2.777777777777778e+00 1.095524226047911e-16 -9.967525809876684e-17 -2.960860922122625e-16 2.777777777777778e+00 1.111111111111112e+01 2.777777777777778e+00 -7.779771280070411e-17 7.961159348728544e-17 -1.498121422519525e-16 2.777777777777779e+00 2.777777777777779e+00 1.111111111111111e+01 -3.994421685775744e-17 6.753207496259521e-18 -1.260831915665353e-16 -1.881711461749264e-17 3.322458966181156e-17 -3.427131533779907e-17 4.166666666666668e+00 -1.535436193079819e-16 -6.622749578771570e-17 -8.427459319931466e-17 2.045116837576156e-16 3.797823006384212e-17 -1.770257318556708e-16 4.166666666666667e+00 1.845495433998353e-17 -2.301666001251437e-16 -1.088874370933743e-16 -4.418028641943143e-16 1.653248857770975e-17 -6.724083159531584e-17 4.166666666666668e+00 
      </DataArray>
    </FieldData>

    <Piece NumberOfPoints="216" NumberOfCells="27" >
      <Points>
        <DataArray type="Float64" NumberOfComponents="3" format="ascii">
-1.666666666665666e-01 1.666666666666666e-01 -1.666666666666168e-01
-1.666666666665992e-01 5.000000000000000e-01 -1.666666666665994e-01
-1.666666666666666e-01 5.000000000000000e-01 -5.000000000000000e-01
-1.666666666666667e-01 1.666666666666667e-01 -5.000000000000000e-01
-5.000000000000000e-01 1.666666666666667e-01 -1.666666666664732e-01
-5.000000000000000e-01 5.000000000000000e-01 -1.666666666666667e-01
-5.000000000000000e-01 5.000000000000000e-01 -5.000000000000000e-01
-5.000000000000000e-01 1.666666666666667e-01 -5.000000000000000e-01
-1.666666666665060e-01 -1.666666666666665e-01 -1.666666666666491e-01
-1.666666666665666e-01 1.666666666666666e-01 -1.666666666666168e-01
-1.666666666666667e-01 1.666666666666667e-01 -5.000000000000000e-01
-1.666666666666667e-01 -1.666666666666664e-01 -5.000000000000000e-01
-5.000000000000000e-01 -1.666666666665992e-01 -1.666666666665994e-01
-5.000000000000000e-01 1.666666666666667e-01 -1.666666666664732e-01
-5.000000000000000e-01 1.666666666666667e-01 -5.000000000000000e-01
-5.000000000000000e-01 -1.666666666666666e-01 -5.000000000000000e-01
-1.666666666664732e-01 -5.000000000000000e-01 -1.666666666666665e-01
-1.666666666665060e-01 -1.666666666666665e-01 -1.666666666666491e-01
-1.666666666666667e-01 -1.666666666666664e-01 -5.000000000000000e-01
-1.666666666666667e-01 -5.000000000000000e-01 -5.000000000000000e-01
-5.000000000000000e-01 -5.000000000000000e-01 -1.666666666666667e-01
-5.000000000000000e-01 -1.666666666665992e-01 -1.666666666665994e-01
-5.000000000000000e-01 -1.666666666666666e-01 -5.000000000000000e-01
-5.000000000000000e-01 -5.000000000000000e-01 -5.000000000000000e-01
-1.666666666665058e-01 1.666666666666665e-01 1.666666666669104e-01
-1.666666666664732e-01 5.000000000000000e-01 1.666666666669280e-01
-1.666666666665992e-01 5.000000000000000e-01 -1.666666666665994e-01
-1.666666666665666e-01 1.666666666666666e-01 -1.666666666666168e-01
-5.000000000000000e-01 1.666666666666667e-01 1.666666666669281e-01
-5.000000000000000e-01 5.000000000000000e-01 1.666666666666666e-01
-5.000000000000000e-01 5.000000000000000e-01 -1.666666666666667e-01
-5.000000000000000e-01 1.666666666666667e-01 -1.666666666664732e-01
-1.666666666665663e-01 -1.666666666666666e-01 1.666666666668778e-01
-1.666666666665058e-01 1.666666666666665e-01 1.666666666669104e-01
-1.666666666665666e-01 1.666666666666666e-01 -1.666666666666168e-01
-1.666666666665060e-01 -1.666666666666665e-01 -1.666666666666491e-01
-5.000000000000000e-01 -1.666666666664732e-01 1.666666666669280e-01
-5.000000000000000e-01 1.666666666666667e-01 1.666666666669281e-01
-5.000000000000000e-01 1.666666666666667e-01 -1.666666666664732e-01
-5.000000000000000e-01 -1.666666666665992e-01 -1.666666666665994e-01
-1.666666666665989e-01 -5.000000000000000e-01 1.666666666668602e-01
-1.666666666665663e-01 -1.666666666666666e-01 1.666666666668778e-01
-1.666666666665060e-01 -1.666666666666665e-01 -1.666666666666491e-01
-1.666666666664732e-01 -5.000000000000000e-01 -1.666666666666665e-01
-5.000000000000000e-01 -5.000000000000000e-01 1.666666666666666e-01
-5.000000000000000e-01 -1.666666666664732e-01 1.666666666669280e-01
-5.000000000000000e-01 -1.666666666665992e-01 -1.666666666665994e-01
-5.000000000000000e-01 -5.000000000000000e-01 -1.666666666666667e-01
-1.666666666666667e-01 1.666666666666664e-01 5.000000000000000e-01
-1.666666666666666e-01 5.000000000000000e-01 5.000000000000000e-01
-1.666666666664732e-01 5.000000000000000e-01 1.666666666669280e-01
-1.666666666665058e-01 1.666666666666665e-01 1.666666666669104e-01
-5.000000000000000e-01 1.666666666666667e-01 5.000000000000000e-01
-5.000000000000000e-01 5.000000000000000e-01 5.000000000000000e-01
-5.000000000000000e-01 5.000000000000000e-01 1.666666666666666e-01
-5.000000000000000e-01 1.666666666666667e-01 1.666666666669281e-01
-1.666666666666667e-01 -1.666666666666667e-01 5.000000000000000e-01
-1.666666666666667e-01 1.666666666666664e-01 5.000000000000000e-01
-1.666666666665058e-01 1.666666666666665e-01 1.666666666669104e-01
-1.666666666665663e-01 -1.666666666666666e-01 1.666666666668778e-01
-5.000000000000000e-01 -1.666666666666666e-01 5.000000000000000e-01
-5.000000000000000e-01 1.666666666666667e-01 5.000000000000000e-01
-5.000000000000000e-01 1.666666666666667e-01 1.666666666669281e-01
-5.000000000000000e-01 -1.666666666664732e-01 1.666666666669280e-01
-1.666666666666667e-01 -5.000000000000000e-01 5.000000000000000e-01
-1.666666666666667e-01 -1.666666666666667e-01 5.000000000000000e-01
-1.666666666665663e-01 -1.666666666666666e-01 1.666666666668778e-01
-1.666666666665989e-01 -5.000000000000000e-01 1.666666666668602e-01
-5.000000000000000e-01 -5.000000000000000e-01 5.000000000000000e-01
-5.000000000000000e-01 -1.666666666666666e-01 5.000000000000000e-01
-5.000000000000000e-01 -1.666666666664732e-01 1.666666666669280e-01
-5.000000000000000e-01 -5.000000000000000e-01 1.666666666666666e-01
1.666666666666665e-01 1.666666666666666e-01 -1.666666666665234e-01
1.666666666666667e-01 5.000000000000000e-01 -1.666666666664732e-01
1.666666666666667e-01 5.000000000000000e-01 -5.000000000000000e-01
1.666666666666665e-01 1.666666666666667e-01 -5.000000000000000e-01
-1.666666666665666e-01 1.666666666666666e-01 -1.666666666666168e-01
-1.666666666665992e-01 5.000000000000000e-01 -1.666666666665994e-01
-1.666666666666666e-01 5.000000000000000e-01 -5.000000000000000e-01
-1.666666666666667e-01 1.666666666666667e-01 -5.000000000000000e-01
1.666666666666664e-01 -1.666666666666665e-01 -1.666666666666166e-01
1.666666666666665e-01 1.666666666666666e-01 -1.666666666665234e-01
1.666666666666665e-01 1.666666666666667e-01 -5.000000000000000e-01
1.666666666666665e-01 -1.666666666666664e-01 -5.000000000000000e-01
-1.666666666665060e-01 -1.666666666666665e-01 -1.666666666666491e-01
-1.666666666665666e-01 1.666666666666666e-01 -1.666666666666168e-01
-1.666666666666667e-01 1.666666666666667e-01 -5.000000000000000e-01
-1.666666666666667e-01 -1.666666666666664e-01 -5.000000000000000e-01
1.666666666666664e-01 -5.000000000000000e-01 -1.666666666666667e-01
1.666666666666664e-01 -1.666666666666665e-01 -1.666666666666166e-01
1.666666666666665e-01 -1.666666666666664e-01 -5.000000000000000e-01
1.666666666666666e-01 -5.000000000000000e-01 -5.000000000000000e-01
-1.666666666664732e-01 -5.000000000000000e-01 -1.666666666666665e-01
-1.666666666665060e-01 -1.666666666666665e-01 -1.666666666666491e-01
-1.666666666666667e-01 -1.666666666666664e-01 -5.000000000000000e-01
-1.666666666666667e-01 -5.000000000000000e-01 -5.000000000000000e-01
1.666666666666665e-01 1.666666666666665e-01 1.666666666668779e-01
1.666666666666667e-01 5.000000000000000e-01 1.666666666669281e-01
1.666666666666667e-01 5.000000000000000e-01 -1.666666666664732e-01
1.666666666666665e-01 1.666666666666666e-01 -1.666666666665234e-01
-1.666666666665058e-01 1.666666666666665e-01 1.666666666669104e-01
-1.666666666664732e-01 5.000000000000000e-01 1.666666666669280e-01
-1.666666666665992e-01 5.000000000000000e-01 -1.666666666665994e-01
-1.666666666665666e-01 1.666666666666666e-01 -1.666666666666168e-01
1.666666666666665e-01 -1.666666666666666e-01 1.666666666667846e-01
1.666666666666665e-01 1.666666666666665e-01 1.666666666668779e-01
1.666666666666665e-01 1.666666666666666e-01 -1.666666666665234e-01
1.666666666666664e-01 -1.666666666666665e-01 -1.666666666666166e-01
-1.666666666665663e-01 -1.666666666666666e-01 1.666666666668778e-01
-1.666666666665058e-01 1.666666666666665e-01 1.666666666669104e-01
-1.666666666665666e-01 1.666666666666666e-01 -1.666666666666168e-01
-1.666666666665060e-01 -1.666666666666665e-01 -1.666666666666491e-01
1.666666666666667e-01 -5.000000000000000e-01 1.666666666667344e-01
1.666666666666665e-01 -1.666666666666666e-01 1.666666666667846e-01
1.666666666666664e-01 -1.666666666666665e-01 -1.666666666666166e-01
1.666666666666664e-01 -5.000000000000000e-01 -1.666666666666667e-01
-1.666666666665989e-01 -5.000000000000000e-01 1.666666666668602e-01
-1.666666666665663e-01 -1.666666666666666e-01 1.666666666668778e-01
-1.666666666665060e-01 -1.666666666666665e-01 -1.666666666666491e-01
-1.666666666664732e-01 -5.000000000000000e-01 -1.666666666666665e-01
1.666666666666665e-01 1.666666666666664e-01 5.000000000000000e-01
1.666666666666667e-01 5.000000000000000e-01 5.000000000000000e-01
1.666666666666667e-01 5.000000000000000e-01 1.666666666669281e-01
1.666666666666665e-01 1.666666666666665e-01 1.666666666668779e-01
-1.666666666666667e-01 1.666666666666664e-01 5.000000000000000e-01
-1.666666666666666e-01 5.000000000000000e-01 5.000000000000000e-01
-1.666666666664732e-01 5.000000000000000e-01 1.666666666669280e-01
-1.666666666665058e-01 1.666666666666665e-01 1.666666666669104e-01
1.666666666666665e-01 -1.666666666666667e-01 5.000000000000000e-01
1.666666666666665e-01 1.666666666666664e-01 5.000000000000000e-01
1.666666666666665e-01 1.666666666666665e-01 1.666666666668779e-01
1.666666666666665e-01 -1.666666666666666e-01 1.666666666667846e-01
-1.666666666666667e-01 -1.666666666666667e-01 5.000000000000000e-01
-1.666666666666667e-01 1.666666666666664e-01 5.000000000000000e-01
-1.666666666665058e-01 1.666666666666665e-01 1.666666666669104e-01
-1.666666666665663e-01 -1.666666666666666e-01 1.666666666668778e-01
1.666666666666666e-01 -5.000000000000000e-01 5.000000000000000e-01
1.666666666666665e-01 -1.666666666666667e-01 5.000000000000000e-01
1.666666666666665e-01 -1.666666666666666e-01 1.666666666667846e-01
1.666666666666667e-01 -5.000000000000000e-01 1.666666666667344e-01
-1.666666666666667e-01 -5.000000000000000e-01 5.000000000000000e-01
-1.666666666666667e-01 -1.666666666666667e-01 5.000000000000000e-01
-1.666666666665663e-01 -1.666666666666666e-01 1.666666666668778e-01
-1.666666666665989e-01 -5.000000000000000e-01 1.666666666668602e-01
5.000000000000000e-01 1.666666666666664e-01 -1.666666666666667e-01
5.000000000000000e-01 5.000000000000000e-01 -1.666666666666667e-01
5.000000000000000e-01 5.000000000000000e-01 -5.000000000000000e-01
5.000000000000000e-01 1.666666666666666e-01 -5.000000000000000e-01
1.666666666666665e-01 1.666666666666666e-01 -1.666666666665234e-01
1.666666666666667e-01 5.000000000000000e-01 -1.666666666664732e-01
1.666666666666667e-01 5.000000000000000e-01 -5.000000000000000e-01
1.666666666666665e-01 1.666666666666667e-01 -5.000000000000000e-01
5.000000000000000e-01 -1.666666666664732e-01 -1.666666666666665e-01
5.000000000000000e-01 1.666666666666664e-01 -1.666666666666667e-01
5.000000000000000e-01 1.666666666666666e-01 -5.000000000000000e-01
5.000000000000000e-01 -1.666666666666667e-01 -5.000000000000000e-01
1.666666666666664e-01 -1.666666666666665e-01 -1.666666666666166e-01
1.666666666666665e-01 1.666666666666666e-01 -1.666666666665234e-01
1.666666666666665e-01 1.666666666666667e-01 -5.000000000000000e-01
1.666666666666665e-01 -1.666666666666664e-01 -5.000000000000000e-01
5.000000000000000e-01 -5.000000000000000e-01 -1.666666666666667e-01
5.000000000000000e-01 -1.666666666664732e-01 -1.666666666666665e-01
5.000000000000000e-01 -1.666666666666667e-01 -5.000000000000000e-01
5.000000000000000e-01 -5.000000000000000e-01 -5.000000000000000e-01
1.666666666666664e-01 -5.000000000000000e-01 -1.666666666666667e-01
1.666666666666664e-01 -1.666666666666665e-01 -1.666666666666166e-01
1.666666666666665e-01 -1.666666666666664e-01 -5.000000000000000e-01
1.666666666666666e-01 -5.000000000000000e-01 -5.000000000000000e-01
5.000000000000000e-01 1.666666666666667e-01 1.666666666667344e-01
5.000000000000000e-01 5.000000000000000e-01 1.666666666666666e-01
5.000000000000000e-01 5.000000000000000e-01 -1.666666666666667e-01
5.000000000000000e-01 1.666666666666664e-01 -1.666666666666667e-01
1.666666666666665e-01 1.666666666666665e-01 1.666666666668779e-01
1.666666666666667e-01 5.000000000000000e-01 1.666666666669281e-01
1.666666666666667e-01 5.000000000000000e-01 -1.666666666664732e-01
1.666666666666665e-01 1.666666666666666e-01 -1.666666666665234e-01
5.000000000000000e-01 -1.666666666665989e-01 1.666666666668602e-01
5.000000000000000e-01 1.666666666666667e-01 1.666666666667344e-01
5.000000000000000e-01 1.666666666666664e-01 -1.666666666666667e-01
5.000000000000000e-01 -1.666666666664732e-01 -1.666666666666665e-01
1.666666666666665e-01 -1.666666666666666e-01 1.666666666667846e-01
1.666666666666665e-01 1.666666666666665e-01 1.666666666668779e-01
1.666666666666665e-01 1.666666666666666e-01 -1.666666666665234e-01
1.666666666666664e-01 -1.666666666666665e-01 -1.666666666666166e-01
5.000000000000000e-01 -5.000000000000000e-01 1.666666666666666e-01
5.000000000000000e-01 -1.666666666665989e-01 1.666666666668602e-01
5.000000000000000e-01 -1.666666666664732e-01 -1.666666666666665e-01
5.000000000000000e-01 -5.000000000000000e-01 -1.666666666666667e-01
1.666666666666667e-01 -5.000000000000000e-01 1.666666666667344e-01
1.666666666666665e-01 -1.666666666666666e-01 1.666666666667846e-01
1.666666666666664e-01 -1.666666666666665e-01 -1.666666666666166e-01
1.666666666666664e-01 -5.000000000000000e-01 -1.666666666666667e-01
5.000000000000000e-01 1.666666666666666e-01 5.000000000000000e-01
5.000000000000000e-01 5.000000000000000e-01 5.000000000000000e-01
5.000000000000000e-01 5.000000000000000e-01 1.666666666666666e-01
5.000000000000000e-01 1.666666666666667e-01 1.666666666667344e-01
1.666666666666665e-01 1.666666666666664e-01 5.000000000000000e-01
1.666666666666667e-01 5.000000000000000e-01 5.000000000000000e-01
1.666666666666667e-01 5.000000000000000e-01 1.666666666669281e-01
1.666666666666665e-01 1.666666666666665e-01 1.666666666668779e-01
5.000000000000000e-01 -1.666666666666667e-01 5.000000000000000e-01
5.000000000000000e-01 1.666666666666666e-01 5.000000000000000e-01
5.000000000000000e-01 1.666666666666667e-01 1.666666666667344e-01
5.000000000000000e-01 -1.666666666665989e-01 1.666666666668602e-01
1.666666666666665e-01 -1.666666666666667e-01 5.000000000000000e-01
1.666666666666665e-01 1.666666666666664e-01 5.000000000000000e-01
1.666666666666665e-01 1.666666666666665e-01 1.666666666668779e-01
1.666666666666665e-01 -1.666666666666666e-01 1.666666666667846e-01
5.000000000000000e-01 -5.000000000000000e-01 5.000000000000000e-01
5.000000000000000e-01 -1.666666666666667e-01 5.000000000000000e-01
5.000000000000000e-01 -1.666666666665989e-01 1.666666666668602e-01
5.000000000000000e-01 -5.000000000000000e-01 1.666666666666666e-01
1.666666666666666e-01 -5.000000000000000e-01 5.000000000000000e-01
1.666666666666665e-01 -1.666666666666667e-01 5.000000000000000e-01
1.666666666666665e-01 -1.666666666666666e-01 1.666666666667846e-01
1.666666666666667e-01 -5.000000000000000e-01 1.666666666667344e-01
        </DataArray>
      </Points>

      <Cells>
        <DataArray type="Int32" Name="connectivity" format="ascii">
0 1 2 3 4 5 6 7 8 9 10 11 12 13 14 15 16 17 18 19 20 21 22 23 24 25 26 27 28 29 30 31 32 33 34 35 36 37 38 39 40 41 42 43 44 45 46 47 48 49 50 51 52 53 54 55 56 57 58 59 60 61 62 63 64 65 66 67 68 69 70 71 72 73 74 75 76 77 78 79 80 81 82 83 84 85 86 87 88 89 90 91 92 93 94 95 96 97 98 99 100 101 102 103 104 105 106 107 108 109 110 111 112 113 114 115 116 117 118 119 120 121 122 123 124 125 126 127 128 129 130 131 132 133 134 135 136 137 138 139 140 141 142 143 144 145 146 147 148 149 150 151 152 153 154 155 156 157 158 159 160 161 162 163 164 165 166 167 168 169 170 171 172 173 174 175 176 177 178 179 180 181 182 183 184 185 186 187 188 189 190 191 192 193 194 195 196 197 198 199 200 201 202 203 204 205 206 207 208 209 210 211 212 213 214 215 
        </DataArray>
        <DataArray type="Int32" Name="offsets" format="ascii">
8 16 24 32 40 48 56 64 72 80 88 96 104 112 120 128 136 144 152 160 168 176 184 192 200 208 216 
        </DataArray>
        <DataArray type="UInt8" Name="types" format="ascii">
12 12 12 12 12 12 12 12 12 12 12 12 12 12 12 12 12 12 12 12 12 12 12 12 12 12 12 
        </DataArray>
      </Cells>

  <PointData>
        <DataArray type="Float64" Name="rve_elem_3_gp_ 0_displacement" NumberOfComponents="3" format="ascii">
0.000000000000000e+00 0.000000000000000e+00 0.000000000000000e+00
1.619075244244364e-17 3.504696852023439e-20 1.850371707708407e-17
1.156482317317871e-17 -4.555835332230984e-18 1.850371707708594e-17
1.156482317317872e-17 -4.555835332230983e-18 9.251858538542974e-18
5.319818659662477e-17 4.696023206314651e-18 1.850371707708594e-17
5.319818659662209e-17 4.696023206311986e-18 2.775557561562891e-17
4.857225732735060e-17 1.051409055607528e-19 2.775557561562891e-17
4.857225732735060e-17 1.051409055607528e-19 1.850371707708594e-17
0.000000000000000e+00 0.000000000000000e+00 0.000000000000000e+00
0.000000000000000e+00 0.000000000000000e+00 0.000000000000000e+00
1.156482317317872e-17 -4.555835332230983e-18 9.251858538542974e-18
1.156482317317872e-17 -4.555835332230983e-18 8.474091755303838e-33
5.319818659662302e-17 4.696023206312913e-18 9.251858538544843e-18
5.319818659662477e-17 4.696023206314651e-18 1.850371707708594e-17
4.857225732735060e-17 1.051409055607528e-19 1.850371707708594e-17
4.857225732735060e-17 1.051409055607528e-19 9.251858538542972e-18
1.619075244242872e-17 3.504696851754810e-20 -9.251858538548340e-18
0.000000000000000e+00 0.000000000000000e+00 0.000000000000000e+00
1.156482317317872e-17 -4.555835332230983e-18 8.474091755303838e-33
1.156482317317872e-17 -4.555835332230983e-18 -9.251858538542969e-18
5.319818659662209e-17 4.696023206311986e-18 0.000000000000000e+00
5.319818659662302e-17 4.696023206312913e-18 9.251858538544843e-18
4.857225732735060e-17 1.051409055607528e-19 9.251858538542972e-18
4.857225732735060e-17 1.051409055607528e-19 0.000000000000000e+00
0.000000000000000e+00 0.000000000000000e+00 0.000000000000000e+00
2.081668171170383e-17 4.625929269272379e-18 1.850371707708057e-17
1.619075244244364e-17 3.504696852023439e-20 1.850371707708407e-17
0.000000000000000e+00 0.000000000000000e+00 0.000000000000000e+00
5.782411586589720e-17 9.286905507066822e-18 1.850371707708594e-17
5.782411586589357e-17 9.286905507063219e-18 2.775557561562891e-17
5.319818659662209e-17 4.696023206311986e-18 2.775557561562891e-17
5.319818659662477e-17 4.696023206314651e-18 1.850371707708594e-17
0.000000000000000e+00 0.000000000000000e+00 0.000000000000000e+00
0.000000000000000e+00 0.000000000000000e+00 0.000000000000000e+00
0.000000000000000e+00 0.000000000000000e+00 0.000000000000000e+00
0.000000000000000e+00 0.000000000000000e+00 0.000000000000000e+00
5.782411586589720e-17 9.286905507066820e-18 9.251858538548340e-18
5.782411586589720e-17 9.286905507066822e-18 1.850371707708594e-17
5.319818659662477e-17 4.696023206314651e-18 1.850371707708594e-17
5.319818659662302e-17 4.696023206312913e-18 9.251858538544843e-18
2.081668171171685e-17 4.625929269273202e-18 -9.251858538544852e-18
0.000000000000000e+00 0.000000000000000e+00 0.000000000000000e+00
0.000000000000000e+00 0.000000000000000e+00 0.000000000000000e+00
1.619075244242872e-17 3.504696851754810e-20 -9.251858538548340e-18
5.782411586589357e-17 9.286905507063219e-18 0.000000000000000e+00
5.782411586589720e-17 9.286905507066820e-18 9.251858538548340e-18
5.319818659662302e-17 4.696023206312913e-18 9.251858538544843e-18
5.319818659662209e-17 4.696023206311986e-18 0.000000000000000e+00
2.544261098099318e-17 9.216811570022719e-18 9.251858538542966e-18
2.544261098099316e-17 9.216811570022717e-18 1.850371707708594e-17
2.081668171170383e-17 4.625929269272379e-18 1.850371707708057e-17
0.000000000000000e+00 0.000000000000000e+00 0.000000000000000e+00
6.245004513516506e-17 1.387778780781445e-17 1.850371707708594e-17
6.245004513516506e-17 1.387778780781445e-17 2.775557561562891e-17
5.782411586589357e-17 9.286905507063219e-18 2.775557561562891e-17
5.782411586589720e-17 9.286905507066822e-18 1.850371707708594e-17
2.544261098099318e-17 9.216811570022719e-18 0.000000000000000e+00
2.544261098099318e-17 9.216811570022719e-18 9.251858538542966e-18
0.000000000000000e+00 0.000000000000000e+00 0.000000000000000e+00
0.000000000000000e+00 0.000000000000000e+00 0.000000000000000e+00
6.245004513516506e-17 1.387778780781445e-17 9.251858538542972e-18
6.245004513516506e-17 1.387778780781445e-17 1.850371707708594e-17
5.782411586589720e-17 9.286905507066822e-18 1.850371707708594e-17
5.782411586589720e-17 9.286905507066820e-18 9.251858538548340e-18
2.544261098099318e-17 9.216811570022719e-18 -9.251858538542969e-18
2.544261098099318e-17 9.216811570022719e-18 0.000000000000000e+00
0.000000000000000e+00 0.000000000000000e+00 0.000000000000000e+00
2.081668171171685e-17 4.625929269273202e-18 -9.251858538544852e-18
6.245004513516506e-17 1.387778780781445e-17 0.000000000000000e+00
6.245004513516506e-17 1.387778780781445e-17 9.251858538542972e-18
5.782411586589720e-17 9.286905507066820e-18 9.251858538548340e-18
5.782411586589357e-17 9.286905507063219e-18 0.000000000000000e+00
0.000000000000000e+00 0.000000000000000e+00 0.000000000000000e+00
-2.081668171171900e-17 -4.625929269268821e-18 9.251858538542969e-18
-2.544261098099318e-17 -9.216811570022719e-18 9.251858538542969e-18
-2.544261098099315e-17 -9.216811570022716e-18 6.162975822039155e-33
0.000000000000000e+00 0.000000000000000e+00 0.000000000000000e+00
1.619075244244364e-17 3.504696852023439e-20 1.850371707708407e-17
1.156482317317871e-17 -4.555835332230984e-18 1.850371707708594e-17
1.156482317317872e-17 -4.555835332230983e-18 9.251858538542974e-18
0.000000000000000e+00 0.000000000000000e+00 0.000000000000000e+00
0.000000000000000e+00 0.000000000000000e+00 0.000000000000000e+00
-2.544261098099315e-17 -9.216811570022716e-18 6.162975822039155e-33
-2.544261098099315e-17 -9.216811570022716e-18 -9.251858538542960e-18
0.000000000000000e+00 0.000000000000000e+00 0.000000000000000e+00
0.000000000000000e+00 0.000000000000000e+00 0.000000000000000e+00
1.156482317317872e-17 -4.555835332230983e-18 9.251858538542974e-18
1.156482317317872e-17 -4.555835332230983e-18 8.474091755303838e-33
-2.081668171172166e-17 -4.625929269271481e-18 -1.850371707708594e-17
0.000000000000000e+00 0.000000000000000e+00 0.000000000000000e+00
-2.544261098099315e-17 -9.216811570022716e-18 -9.251858538542960e-18
-2.544261098099316e-17 -9.216811570022717e-18 -1.850371707708594e-17
1.619075244242872e-17 3.504696851754810e-20 -9.251858538548340e-18
0.000000000000000e+00 0.000000000000000e+00 0.000000000000000e+00
1.156482317317872e-17 -4.555835332230983e-18 8.474091755303838e-33
1.156482317317872e-17 -4.555835332230983e-18 -9.251858538542969e-18
0.000000000000000e+00 0.000000000000000e+00 0.000000000000000e+00
-1.619075244244658e-17 -3.504696851665100e-20 9.251858538542969e-18
-2.081668171171900e-17 -4.625929269268821e-18 9.251858538542969e-18
0.000000000000000e+00 0.000000000000000e+00 0.000000000000000e+00
0.000000000000000e+00 0.000000000000000e+00 0.000000000000000e+00
2.081668171170383e-17 4.625929269272379e-18 1.850371707708057e-17
1.619075244244364e-17 3.504696852023439e-20 1.850371707708407e-17
0.000000000000000e+00 0.000000000000000e+00 0.000000000000000e+00
0.000000000000000e+00 0.000000000000000e+00 0.000000000000000e+00
0.000000000000000e+00 0.000000000000000e+00 0.000000000000000e+00
0.000000000000000e+00 0.000000000000000e+00 0.000000000000000e+00
0.000000000000000e+00 0.000000000000000e+00 0.000000000000000e+00
0.000000000000000e+00 0.000000000000000e+00 0.000000000000000e+00
0.000000000000000e+00 0.000000000000000e+00 0.000000000000000e+00
0.000000000000000e+00 0.000000000000000e+00 0.000000000000000e+00
0.000000000000000e+00 0.000000000000000e+00 0.000000000000000e+00
-1.619075244244926e-17 -3.504696851931841e-20 -1.850371707708594e-17
0.000000000000000e+00 0.000000000000000e+00 0.000000000000000e+00
0.000000000000000e+00 0.000000000000000e+00 0.000000000000000e+00
-2.081668171172166e-17 -4.625929269271481e-18 -1.850371707708594e-17
2.081668171171685e-17 4.625929269273202e-18 -9.251858538544852e-18
0.000000000000000e+00 0.000000000000000e+00 0.000000000000000e+00
0.000000000000000e+00 0.000000000000000e+00 0.000000000000000e+00
1.619075244242872e-17 3.504696851754810e-20 -9.251858538548340e-18
-1.156482317317869e-17 4.555835332230986e-18 -2.311115933264683e-33
-1.156482317317872e-17 4.555835332230983e-18 9.251858538542969e-18
-1.619075244244658e-17 -3.504696851665100e-20 9.251858538542969e-18
0.000000000000000e+00 0.000000000000000e+00 0.000000000000000e+00
2.544261098099318e-17 9.216811570022719e-18 9.251858538542966e-18
2.544261098099316e-17 9.216811570022717e-18 1.850371707708594e-17
2.081668171170383e-17 4.625929269272379e-18 1.850371707708057e-17
0.000000000000000e+00 0.000000000000000e+00 0.000000000000000e+00
-1.156482317317869e-17 4.555835332230986e-18 -9.251858538542968e-18
-1.156482317317869e-17 4.555835332230986e-18 -2.311115933264683e-33
0.000000000000000e+00 0.000000000000000e+00 0.000000000000000e+00
0.000000000000000e+00 0.000000000000000e+00 0.000000000000000e+00
2.544261098099318e-17 9.216811570022719e-18 0.000000000000000e+00
2.544261098099318e-17 9.216811570022719e-18 9.251858538542966e-18
0.000000000000000e+00 0.000000000000000e+00 0.000000000000000e+00
0.000000000000000e+00 0.000000000000000e+00 0.000000000000000e+00
-1.156482317317871e-17 4.555835332230984e-18 -1.850371707708594e-17
-1.156482317317869e-17 4.555835332230986e-18 -9.251858538542968e-18
0.000000000000000e+00 0.000000000000000e+00 0.000000000000000e+00
-1.619075244244926e-17 -3.504696851931841e-20 -1.850371707708594e-17
2.544261098099318e-17 9.216811570022719e-18 -9.251858538542969e-18
2.544261098099318e-17 9.216811570022719e-18 0.000000000000000e+00
0.000000000000000e+00 0.000000000000000e+00 0.000000000000000e+00
2.081668171171685e-17 4.625929269273202e-18 -9.251858538544852e-18
-5.782411586589357e-17 -9.286905507063221e-18 -9.251858538542978e-18
-5.782411586589357e-17 -9.286905507063221e-18 0.000000000000000e+00
-6.245004513516506e-17 -1.387778780781445e-17 0.000000000000000e+00
-6.245004513516506e-17 -1.387778780781445e-17 -9.251858538542972e-18
0.000000000000000e+00 0.000000000000000e+00 0.000000000000000e+00
-2.081668171171900e-17 -4.625929269268821e-18 9.251858538542969e-18
-2.544261098099318e-17 -9.216811570022719e-18 9.251858538542969e-18
-2.544261098099315e-17 -9.216811570022716e-18 6.162975822039155e-33
-5.782411586589356e-17 -9.286905507063218e-18 -1.850371707708057e-17
-5.782411586589357e-17 -9.286905507063221e-18 -9.251858538542978e-18
-6.245004513516506e-17 -1.387778780781445e-17 -9.251858538542972e-18
-6.245004513516506e-17 -1.387778780781445e-17 -1.850371707708594e-17
0.000000000000000e+00 0.000000000000000e+00 0.000000000000000e+00
0.000000000000000e+00 0.000000000000000e+00 0.000000000000000e+00
-2.544261098099315e-17 -9.216811570022716e-18 6.162975822039155e-33
-2.544261098099315e-17 -9.216811570022716e-18 -9.251858538542960e-18
-5.782411586589357e-17 -9.286905507063221e-18 -2.775557561562891e-17
-5.782411586589356e-17 -9.286905507063218e-18 -1.850371707708057e-17
-6.245004513516506e-17 -1.387778780781445e-17 -1.850371707708594e-17
-6.245004513516506e-17 -1.387778780781445e-17 -2.775557561562891e-17
-2.081668171172166e-17 -4.625929269271481e-18 -1.850371707708594e-17
0.000000000000000e+00 0.000000000000000e+00 0.000000000000000e+00
-2.544261098099315e-17 -9.216811570022716e-18 -9.251858538542960e-18
-2.544261098099316e-17 -9.216811570022717e-18 -1.850371707708594e-17
-5.319818659662114e-17 -4.696023206311054e-18 -9.251858538542969e-18
-5.319818659662209e-17 -4.696023206311988e-18 0.000000000000000e+00
-5.782411586589357e-17 -9.286905507063221e-18 0.000000000000000e+00
-5.782411586589357e-17 -9.286905507063221e-18 -9.251858538542978e-18
0.000000000000000e+00 0.000000000000000e+00 0.000000000000000e+00
-1.619075244244658e-17 -3.504696851665100e-20 9.251858538542969e-18
-2.081668171171900e-17 -4.625929269268821e-18 9.251858538542969e-18
0.000000000000000e+00 0.000000000000000e+00 0.000000000000000e+00
-5.319818659661940e-17 -4.696023206309321e-18 -1.850371707708406e-17
-5.319818659662114e-17 -4.696023206311054e-18 -9.251858538542969e-18
-5.782411586589357e-17 -9.286905507063221e-18 -9.251858538542978e-18
-5.782411586589356e-17 -9.286905507063218e-18 -1.850371707708057e-17
0.000000000000000e+00 0.000000000000000e+00 0.000000000000000e+00
0.000000000000000e+00 0.000000000000000e+00 0.000000000000000e+00
0.000000000000000e+00 0.000000000000000e+00 0.000000000000000e+00
0.000000000000000e+00 0.000000000000000e+00 0.000000000000000e+00
-5.319818659662209e-17 -4.696023206311988e-18 -2.775557561562891e-17
-5.319818659661940e-17 -4.696023206309321e-18 -1.850371707708406e-17
-5.782411586589356e-17 -9.286905507063218e-18 -1.850371707708057e-17
-5.782411586589357e-17 -9.286905507063221e-18 -2.775557561562891e-17