<?xml version="1.0" ?> 
<!-- 
# vtk DataFile Version 3.0
-->
<VTKFile type="UnstructuredGrid" version="0.1" compressor="vtkZLibDataCompressor" byte_order="LittleEndian">
  <UnstructuredGrid>
    <FieldData>
      <DataArray type="Float64" Name="TIME" NumberOfTuples="1" format="ascii">
1.500000000000000e+00 
      </DataArray>
      <DataArray type="Float64" Name="tangent_stiffness_tensor_cmat" NumberOfTuples="1" NumberOfComponents="36" format="ascii">
1.111111111111111e+01 2.777777777777777e+00 2.777777777777778e+00 1.344667177162173e-16 -1.617933877363126e-17 -1.050199803932532e-16 2.777777777777777e+00 1.111111111111111e+01 2.777777777777778e+00 3.449980697748924e-16 -1.940114911556248e-16 -1.732842715022700e-18 2.777777777777776e+00 2.777777777777777e+00 1.111111111111128e+01 7.171553398491146e-17 -1.928271531097761e-16 -4.626447825509792e-17 5.823984886738693e-17 1.308368668186539e-16 9.373405116387387e-17 4.166666666666665e+00 -3.848174399568669e-17 2.053011084788640e-18 -4.795034470992619e-18 9.004568413670714e-17 -6.712951127288118e-17 -4.282939794728013e-17 4.166666666666718e+00 1.077778088459873e-16 -3.465911656607618e-16 -7.996802760022017e-17 -2.220013096065824e-16 2.927906457513165e-17 1.742524110760331e-16 4.166666666666718e+00 
      </DataArray>
    </FieldData>

    <Piece NumberOfPoints="216" NumberOfCells="27" >
      <Points>
        <DataArray type="Float64" NumberOfComponents="3" format="ascii">
-1.666666666665666e-01 1.666666666666666e-01 -1.666666666666168e-01
-1.666666666665992e-01 5.000000000000000e-01 -1.666666666665994e-01
-1.666666666666666e-01 5.000000000000000e-01 -5.000000000000000e-01
-1.666666666666667e-01 1.666666666666667e-01 -5.000000000000000e-01
-5.000000000000000e-01 1.666666666666667e-01 -1.666666666664732e-01
-5.000000000000000e-01 5.000000000000000e-01 -1.666666666666667e-01
-5.000000000000000e-01 5.000000000000000e-01 -5.000000000000000e-01
-5.000000000000000e-01 1.666666666666667e-01 -5.000000000000000e-01
-1.666666666665060e-01 -1.666666666666665e-01 -1.666666666666491e-01
-1.666666666665666e-01 1.666666666666666e-01 -1.666666666666168e-01
-1.666666666666667e-01 1.666666666666667e-01 -5.000000000000000e-01
-1.666666666666667e-01 -1.666666666666664e-01 -5.000000000000000e-01
-5.000000000000000e-01 -1.666666666665992e-01 -1.666666666665994e-01
-5.000000000000000e-01 1.666666666666667e-01 -1.666666666664732e-01
-5.000000000000000e-01 1.666666666666667e-01 -5.000000000000000e-01
-5.000000000000000e-01 -1.666666666666666e-01 -5.000000000000000e-01
-1.666666666664732e-01 -5.000000000000000e-01 -1.666666666666665e-01
-1.666666666665060e-01 -1.666666666666665e-01 -1.666666666666491e-01
-1.666666666666667e-01 -1.666666666666664e-01 -5.000000000000000e-01
-1.666666666666667e-01 -5.000000000000000e-01 -5.000000000000000e-01
-5.000000000000000e-01 -5.000000000000000e-01 -1.666666666666667e-01
-5.000000000000000e-01 -1.666666666665992e-01 -1.666666666665994e-01
-5.000000000000000e-01 -1.666666666666666e-01 -5.000000000000000e-01
-5.000000000000000e-01 -5.000000000000000e-01 -5.000000000000000e-01
-1.666666666665058e-01 1.666666666666665e-01 1.666666666669104e-01
-1.666666666664732e-01 5.000000000000000e-01 1.666666666669280e-01
-1.666666666665992e-01 5.000000000000000e-01 -1.666666666665994e-01
-1.666666666665666e-01 1.666666666666666e-01 -1.666666666666168e-01
-5.000000000000000e-01 1.666666666666667e-01 1.666666666669281e-01
-5.000000000000000e-01 5.000000000000000e-01 1.666666666666666e-01
-5.000000000000000e-01 5.000000000000000e-01 -1.666666666666667e-01
-5.000000000000000e-01 1.666666666666667e-01 -1.666666666664732e-01
-1.666666666665663e-01 -1.666666666666666e-01 1.666666666668778e-01
-1.666666666665058e-01 1.666666666666665e-01 1.666666666669104e-01
-1.666666666665666e-01 1.666666666666666e-01 -1.666666666666168e-01
-1.666666666665060e-01 -1.666666666666665e-01 -1.666666666666491e-01
-5.000000000000000e-01 -1.666666666664732e-01 1.666666666669280e-01
-5.000000000000000e-01 1.666666666666667e-01 1.666666666669281e-01
-5.000000000000000e-01 1.666666666666667e-01 -1.666666666664732e-01
-5.000000000000000e-01 -1.666666666665992e-01 -1.666666666665994e-01
-1.666666666665989e-01 -5.000000000000000e-01 1.666666666668602e-01
-1.666666666665663e-01 -1.666666666666666e-01 1.666666666668778e-01
-1.666666666665060e-01 -1.666666666666665e-01 -1.666666666666491e-01
-1.666666666664732e-01 -5.000000000000000e-01 -1.666666666666665e-01
-5.000000000000000e-01 -5.000000000000000e-01 1.666666666666666e-01
-5.000000000000000e-01 -1.666666666664732e-01 1.666666666669280e-01
-5.000000000000000e-01 -1.666666666665992e-01 -1.666666666665994e-01
-5.000000000000000e-01 -5.000000000000000e-01 -1.666666666666667e-01
-1.666666666666667e-01 1.666666666666664e-01 5.000000000000000e-01
-1.666666666666666e-01 5.000000000000000e-01 5.000000000000000e-01
-1.666666666664732e-01 5.000000000000000e-01 1.666666666669280e-01
-1.666666666665058e-01 1.666666666666665e-01 1.666666666669104e-01
-5.000000000000000e-01 1.666666666666667e-01 5.000000000000000e-01
-5.000000000000000e-01 5.000000000000000e-01 5.000000000000000e-01
-5.000000000000000e-01 5.000000000000000e-01 1.666666666666666e-01
-5.000000000000000e-01 1.666666666666667e-01 1.666666666669281e-01
-1.666666666666667e-01 -1.666666666666667e-01 5.000000000000000e-01
-1.666666666666667e-01 1.666666666666664e-01 5.000000000000000e-01
-1.666666666665058e-01 1.666666666666665e-01 1.666666666669104e-01
-1.666666666665663e-01 -1.666666666666666e-01 1.666666666668778e-01
-5.000000000000000e-01 -1.666666666666666e-01 5.000000000000000e-01
-5.000000000000000e-01 1.666666666666667e-01 5.000000000000000e-01
-5.000000000000000e-01 1.666666666666667e-01 1.666666666669281e-01
-5.000000000000000e-01 -1.666666666664732e-01 1.666666666669280e-01
-1.666666666666667e-01 -5.000000000000000e-01 5.000000000000000e-01
-1.666666666666667e-01 -1.666666666666667e-01 5.000000000000000e-01
-1.666666666665663e-01 -1.666666666666666e-01 1.666666666668778e-01
-1.666666666665989e-01 -5.000000000000000e-01 1.666666666668602e-01
-5.000000000000000e-01 -5.000000000000000e-01 5.000000000000000e-01
-5.000000000000000e-01 -1.666666666666666e-01 5.000000000000000e-01
-5.000000000000000e-01 -1.666666666664732e-01 1.666666666669280e-01
-5.000000000000000e-01 -5.000000000000000e-01 1.666666666666666e-01
1.666666666666665e-01 1.666666666666666e-01 -1.666666666665234e-01
1.666666666666667e-01 5.000000000000000e-01 -1.666666666664732e-01
1.666666666666667e-01 5.000000000000000e-01 -5.000000000000000e-01
1.666666666666665e-01 1.666666666666667e-01 -5.000000000000000e-01
-1.666666666665666e-01 1.666666666666666e-01 -1.666666666666168e-01
-1.666666666665992e-01 5.000000000000000e-01 -1.666666666665994e-01
-1.666666666666666e-01 5.000000000000000e-01 -5.000000000000000e-01
-1.666666666666667e-01 1.666666666666667e-01 -5.000000000000000e-01
1.666666666666664e-01 -1.666666666666665e-01 -1.666666666666166e-01
1.666666666666665e-01 1.666666666666666e-01 -1.666666666665234e-01
1.666666666666665e-01 1.666666666666667e-01 -5.000000000000000e-01
1.666666666666665e-01 -1.666666666666664e-01 -5.000000000000000e-01
-1.666666666665060e-01 -1.666666666666665e-01 -1.666666666666491e-01
-1.666666666665666e-01 1.666666666666666e-01 -1.666666666666168e-01
-1.666666666666667e-01 1.666666666666667e-01 -5.000000000000000e-01
-1.666666666666667e-01 -1.666666666666664e-01 -5.000000000000000e-01
1.666666666666664e-01 -5.000000000000000e-01 -1.666666666666667e-01
1.666666666666664e-01 -1.666666666666665e-01 -1.666666666666166e-01
1.666666666666665e-01 -1.666666666666664e-01 -5.000000000000000e-01
1.666666666666666e-01 -5.000000000000000e-01 -5.000000000000000e-01
-1.666666666664732e-01 -5.000000000000000e-01 -1.666666666666665e-01
-1.666666666665060e-01 -1.666666666666665e-01 -1.666666666666491e-01
-1.666666666666667e-01 -1.666666666666664e-01 -5.000000000000000e-01
-1.666666666666667e-01 -5.000000000000000e-01 -5.000000000000000e-01
1.666666666666665e-01 1.666666666666665e-01 1.666666666668779e-01
1.666666666666667e-01 5.000000000000000e-01 1.666666666669281e-01
1.666666666666667e-01 5.000000000000000e-01 -1.666666666664732e-01
1.666666666666665e-01 1.666666666666666e-01 -1.666666666665234e-01
-1.666666666665058e-01 1.666666666666665e-01 1.666666666669104e-01
-1.666666666664732e-01 5.000000000000000e-01 1.666666666669280e-01
-1.666666666665992e-01 5.000000000000000e-01 -1.666666666665994e-01
-1.666666666665666e-01 1.666666666666666e-01 -1.666666666666168e-01
1.666666666666665e-01 -1.666666666666666e-01 1.666666666667846e-01
1.666666666666665e-01 1.666666666666665e-01 1.666666666668779e-01
1.666666666666665e-01 1.666666666666666e-01 -1.666666666665234e-01
1.666666666666664e-01 -1.666666666666665e-01 -1.666666666666166e-01
-1.666666666665663e-01 -1.666666666666666e-01 1.666666666668778e-01
-1.666666666665058e-01 1.666666666666665e-01 1.666666666669104e-01
-1.666666666665666e-01 1.666666666666666e-01 -1.666666666666168e-01
-1.666666666665060e-01 -1.666666666666665e-01 -1.666666666666491e-01
1.666666666666667e-01 -5.000000000000000e-01 1.666666666667344e-01
1.666666666666665e-01 -1.666666666666666e-01 1.666666666667846e-01
1.666666666666664e-01 -1.666666666666665e-01 -1.666666666666166e-01
1.666666666666664e-01 -5.000000000000000e-01 -1.666666666666667e-01
-1.666666666665989e-01 -5.000000000000000e-01 1.666666666668602e-01
-1.666666666665663e-01 -1.666666666666666e-01 1.666666666668778e-01
-1.666666666665060e-01 -1.666666666666665e-01 -1.666666666666491e-01
-1.666666666664732e-01 -5.000000000000000e-01 -1.666666666666665e-01
1.666666666666665e-01 1.666666666666664e-01 5.000000000000000e-01
1.666666666666667e-01 5.000000000000000e-01 5.000000000000000e-01
1.666666666666667e-01 5.000000000000000e-01 1.666666666669281e-01
1.666666666666665e-01 1.666666666666665e-01 1.666666666668779e-01
-1.666666666666667e-01 1.666666666666664e-01 5.000000000000000e-01
-1.666666666666666e-01 5.000000000000000e-01 5.000000000000000e-01
-1.666666666664732e-01 5.000000000000000e-01 1.666666666669280e-01
-1.666666666665058e-01 1.666666666666665e-01 1.666666666669104e-01
1.666666666666665e-01 -1.666666666666667e-01 5.000000000000000e-01
1.666666666666665e-01 1.666666666666664e-01 5.000000000000000e-01
1.666666666666665e-01 1.666666666666665e-01 1.666666666668779e-01
1.666666666666665e-01 -1.666666666666666e-01 1.666666666667846e-01
-1.666666666666667e-01 -1.666666666666667e-01 5.000000000000000e-01
-1.666666666666667e-01 1.666666666666664e-01 5.000000000000000e-01
-1.666666666665058e-01 1.666666666666665e-01 1.666666666669104e-01
-1.666666666665663e-01 -1.666666666666666e-01 1.666666666668778e-01
1.666666666666666e-01 -5.000000000000000e-01 5.000000000000000e-01
1.666666666666665e-01 -1.666666666666667e-01 5.000000000000000e-01
1.666666666666665e-01 -1.666666666666666e-01 1.666666666667846e-01
1.666666666666667e-01 -5.000000000000000e-01 1.666666666667344e-01
-1.666666666666667e-01 -5.000000000000000e-01 5.000000000000000e-01
-1.666666666666667e-01 -1.666666666666667e-01 5.000000000000000e-01
-1.666666666665663e-01 -1.666666666666666e-01 1.666666666668778e-01
-1.666666666665989e-01 -5.000000000000000e-01 1.666666666668602e-01
5.000000000000000e-01 1.666666666666664e-01 -1.666666666666667e-01
5.000000000000000e-01 5.000000000000000e-01 -1.666666666666667e-01
5.000000000000000e-01 5.000000000000000e-01 -5.000000000000000e-01
5.000000000000000e-01 1.666666666666666e-01 -5.000000000000000e-01
1.666666666666665e-01 1.666666666666666e-01 -1.666666666665234e-01
1.666666666666667e-01 5.000000000000000e-01 -1.666666666664732e-01
1.666666666666667e-01 5.000000000000000e-01 -5.000000000000000e-01
1.666666666666665e-01 1.666666666666667e-01 -5.000000000000000e-01
5.000000000000000e-01 -1.666666666664732e-01 -1.666666666666665e-01
5.000000000000000e-01 1.666666666666664e-01 -1.666666666666667e-01
5.000000000000000e-01 1.666666666666666e-01 -5.000000000000000e-01
5.000000000000000e-01 -1.666666666666667e-01 -5.000000000000000e-01
1.666666666666664e-01 -1.666666666666665e-01 -1.666666666666166e-01
1.666666666666665e-01 1.666666666666666e-01 -1.666666666665234e-01
1.666666666666665e-01 1.666666666666667e-01 -5.000000000000000e-01
1.666666666666665e-01 -1.666666666666664e-01 -5.000000000000000e-01
5.000000000000000e-01 -5.000000000000000e-01 -1.666666666666667e-01
5.000000000000000e-01 -1.666666666664732e-01 -1.666666666666665e-01
5.000000000000000e-01 -1.666666666666667e-01 -5.000000000000000e-01
5.000000000000000e-01 -5.000000000000000e-01 -5.000000000000000e-01
1.666666666666664e-01 -5.000000000000000e-01 -1.666666666666667e-01
1.666666666666664e-01 -1.666666666666665e-01 -1.666666666666166e-01
1.666666666666665e-01 -1.666666666666664e-01 -5.000000000000000e-01
1.666666666666666e-01 -5.000000000000000e-01 -5.000000000000000e-01
5.000000000000000e-01 1.666666666666667e-01 1.666666666667344e-01
5.000000000000000e-01 5.000000000000000e-01 1.666666666666666e-01
5.000000000000000e-01 5.000000000000000e-01 -1.666666666666667e-01
5.000000000000000e-01 1.666666666666664e-01 -1.666666666666667e-01
1.666666666666665e-01 1.666666666666665e-01 1.666666666668779e-01
1.666666666666667e-01 5.000000000000000e-01 1.666666666669281e-01
1.666666666666667e-01 5.000000000000000e-01 -1.666666666664732e-01
1.666666666666665e-01 1.666666666666666e-01 -1.666666666665234e-01
5.000000000000000e-01 -1.666666666665989e-01 1.666666666668602e-01
5.000000000000000e-01 1.666666666666667e-01 1.666666666667344e-01
5.000000000000000e-01 1.666666666666664e-01 -1.666666666666667e-01
5.000000000000000e-01 -1.666666666664732e-01 -1.666666666666665e-01
1.666666666666665e-01 -1.666666666666666e-01 1.666666666667846e-01
1.666666666666665e-01 1.666666666666665e-01 1.666666666668779e-01
1.666666666666665e-01 1.666666666666666e-01 -1.666666666665234e-01
1.666666666666664e-01 -1.666666666666665e-01 -1.666666666666166e-01
5.000000000000000e-01 -5.000000000000000e-01 1.666666666666666e-01
5.000000000000000e-01 -1.666666666665989e-01 1.666666666668602e-01
5.000000000000000e-01 -1.666666666664732e-01 -1.666666666666665e-01
5.000000000000000e-01 -5.000000000000000e-01 -1.666666666666667e-01
1.666666666666667e-01 -5.000000000000000e-01 1.666666666667344e-01
1.666666666666665e-01 -1.666666666666666e-01 1.666666666667846e-01
1.666666666666664e-01 -1.666666666666665e-01 -1.666666666666166e-01
1.666666666666664e-01 -5.000000000000000e-01 -1.666666666666667e-01
5.000000000000000e-01 1.666666666666666e-01 5.000000000000000e-01
5.000000000000000e-01 5.000000000000000e-01 5.000000000000000e-01
5.000000000000000e-01 5.000000000000000e-01 1.666666666666666e-01
5.000000000000000e-01 1.666666666666667e-01 1.666666666667344e-01
1.666666666666665e-01 1.666666666666664e-01 5.000000000000000e-01
1.666666666666667e-01 5.000000000000000e-01 5.000000000000000e-01
1.666666666666667e-01 5.000000000000000e-01 1.666666666669281e-01
1.666666666666665e-01 1.666666666666665e-01 1.666666666668779e-01
5.000000000000000e-01 -1.666666666666667e-01 5.000000000000000e-01
5.000000000000000e-01 1.666666666666666e-01 5.000000000000000e-01
5.000000000000000e-01 1.666666666666667e-01 1.666666666667344e-01
5.000000000000000e-01 -1.666666666665989e-01 1.666666666668602e-01
1.666666666666665e-01 -1.666666666666667e-01 5.000000000000000e-01
1.666666666666665e-01 1.666666666666664e-01 5.000000000000000e-01
1.666666666666665e-01 1.666666666666665e-01 1.666666666668779e-01
1.666666666666665e-01 -1.666666666666666e-01 1.666666666667846e-01
5.000000000000000e-01 -5.000000000000000e-01 5.000000000000000e-01
5.000000000000000e-01 -1.666666666666667e-01 5.000000000000000e-01
5.000000000000000e-01 -1.666666666665989e-01 1.666666666668602e-01
5.000000000000000e-01 -5.000000000000000e-01 1.666666666666666e-01
1.666666666666666e-01 -5.000000000000000e-01 5.000000000000000e-01
1.666666666666665e-01 -1.666666666666667e-01 5.000000000000000e-01
1.666666666666665e-01 -1.666666666666666e-01 1.666666666667846e-01
1.666666666666667e-01 -5.000000000000000e-01 1.666666666667344e-01
        </DataArray>
      </Points>

      <Cells>
        <DataArray type="Int32" Name="connectivity" format="ascii">
0 1 2 3 4 5 6 7 8 9 10 11 12 13 14 15 16 17 18 19 20 21 22 23 24 25 26 27 28 29 30 31 32 33 34 35 36 37 38 39 40 41 42 43 44 45 46 47 48 49 50 51 52 53 54 55 56 57 58 59 60 61 62 63 64 65 66 67 68 69 70 71 72 73 74 75 76 77 78 79 80 81 82 83 84 85 86 87 88 89 90 91 92 93 94 95 96 97 98 99 100 101 102 103 104 105 106 107 108 109 110 111 112 113 114 115 116 117 118 119 120 121 122 123 124 125 126 127 128 129 130 131 132 133 134 135 136 137 138 139 140 141 142 143 144 145 146 147 148 149 150 151 152 153 154 155 156 157 158 159 160 161 162 163 164 165 166 167 168 169 170 171 172 173 174 175 176 177 178 179 180 181 182 183 184 185 186 187 188 189 190 191 192 193 194 195 196 197 198 199 200 201 202 203 204 205 206 207 208 209 210 211 212 213 214 215 
        </DataArray>
        <DataArray type="Int32" Name="offsets" format="ascii">
8 16 24 32 40 48 56 64 72 80 88 96 104 112 120 128 136 144 152 160 168 176 184 192 200 208 216 
        </DataArray>
        <DataArray type="UInt8" Name="types" format="ascii">
12 12 12 12 12 12 12 12 12 12 12 12 12 12 12 12 12 12 12 12 12 12 12 12 12 12 12 
        </DataArray>
      </Cells>

  <PointData>
        <DataArray type="Float64" Name="rve_elem_5_gp_ 0_displacement" NumberOfComponents="3" format="ascii">
3.724126511868831e-03 -3.724126511871065e-03 -1.565745553016719e-02
3.724126511868481e-03 -1.117237953561023e-02 -1.565745553015117e-02
3.724126511869994e-03 -1.117237953561024e-02 -4.697236659047237e-02
3.724126511870083e-03 -3.724126511870086e-03 -4.697236659047236e-02
1.117237953561030e-02 -3.724126511870081e-03 -1.565745553013935e-02
1.117237953561022e-02 -1.117237953561023e-02 -1.565745553015754e-02
1.117237953561022e-02 -1.117237953561024e-02 -4.697236659047242e-02
1.117237953561031e-02 -3.724126511870086e-03 -4.697236659047240e-02
3.724126511867541e-03 3.724126511871092e-03 -1.565745553017018e-02
3.724126511868831e-03 -3.724126511871065e-03 -1.565745553016719e-02
3.724126511870083e-03 -3.724126511870086e-03 -4.697236659047236e-02
3.724126511870170e-03 3.724126511870065e-03 -4.697236659047234e-02
1.117237953561039e-02 3.724126511868568e-03 -1.565745553015118e-02
1.117237953561030e-02 -3.724126511870081e-03 -1.565745553013935e-02
1.117237953561031e-02 -3.724126511870086e-03 -4.697236659047240e-02
1.117237953561040e-02 3.724126511870069e-03 -4.697236659047239e-02
3.724126511865925e-03 1.117237953561023e-02 -1.565745553015742e-02
3.724126511867541e-03 3.724126511871092e-03 -1.565745553017018e-02
3.724126511870170e-03 3.724126511870065e-03 -4.697236659047234e-02
3.724126511870257e-03 1.117237953561023e-02 -4.697236659047232e-02
1.117237953561048e-02 1.117237953561023e-02 -1.565745553015749e-02
1.117237953561039e-02 3.724126511868568e-03 -1.565745553015118e-02
1.117237953561040e-02 3.724126511870069e-03 -4.697236659047239e-02
1.117237953561048e-02 1.117237953561023e-02 -4.697236659047237e-02
3.724126511867448e-03 -3.724126511871033e-03 1.565745553019473e-02
3.724126511865658e-03 -1.117237953561023e-02 1.565745553018194e-02
3.724126511868481e-03 -1.117237953561023e-02 -1.565745553015117e-02
3.724126511868831e-03 -3.724126511871065e-03 -1.565745553016719e-02
1.117237953561030e-02 -3.724126511870077e-03 1.565745553018192e-02
1.117237953561021e-02 -1.117237953561023e-02 1.565745553015734e-02
1.117237953561022e-02 -1.117237953561023e-02 -1.565745553015754e-02
1.117237953561030e-02 -3.724126511870081e-03 -1.565745553013935e-02
3.724126511868897e-03 3.724126511871068e-03 1.565745553019163e-02
3.724126511867448e-03 -3.724126511871033e-03 1.565745553019473e-02
3.724126511868831e-03 -3.724126511871065e-03 -1.565745553016719e-02
3.724126511867541e-03 3.724126511871092e-03 -1.565745553017018e-02
1.117237953561038e-02 3.724126511865757e-03 1.565745553018193e-02
1.117237953561030e-02 -3.724126511870077e-03 1.565745553018192e-02
1.117237953561030e-02 -3.724126511870081e-03 -1.565745553013935e-02
1.117237953561039e-02 3.724126511868568e-03 -1.565745553015118e-02
3.724126511868727e-03 1.117237953561023e-02 1.565745553017563e-02
3.724126511868897e-03 3.724126511871068e-03 1.565745553019163e-02
3.724126511867541e-03 3.724126511871092e-03 -1.565745553017018e-02
3.724126511865925e-03 1.117237953561023e-02 -1.565745553015742e-02
1.117237953561047e-02 1.117237953561023e-02 1.565745553015739e-02
1.117237953561038e-02 3.724126511865757e-03 1.565745553018193e-02
1.117237953561039e-02 3.724126511868568e-03 -1.565745553015118e-02
1.117237953561048e-02 1.117237953561023e-02 -1.565745553015749e-02
3.724126511870061e-03 -3.724126511870065e-03 4.697236659047229e-02
3.724126511869972e-03 -1.117237953561023e-02 4.697236659047228e-02
3.724126511865658e-03 -1.117237953561023e-02 1.565745553018194e-02
3.724126511867448e-03 -3.724126511871033e-03 1.565745553019473e-02
1.117237953561029e-02 -3.724126511870072e-03 4.697236659047225e-02
1.117237953561020e-02 -1.117237953561023e-02 4.697236659047223e-02
1.117237953561021e-02 -1.117237953561023e-02 1.565745553015734e-02
1.117237953561030e-02 -3.724126511870077e-03 1.565745553018192e-02
3.724126511870148e-03 3.724126511870086e-03 4.697236659047231e-02
3.724126511870061e-03 -3.724126511870065e-03 4.697236659047229e-02
3.724126511867448e-03 -3.724126511871033e-03 1.565745553019473e-02
3.724126511868897e-03 3.724126511871068e-03 1.565745553019163e-02
1.117237953561038e-02 3.724126511870083e-03 4.697236659047226e-02
1.117237953561029e-02 -3.724126511870072e-03 4.697236659047225e-02
1.117237953561030e-02 -3.724126511870077e-03 1.565745553018192e-02
1.117237953561038e-02 3.724126511865757e-03 1.565745553018193e-02
3.724126511870235e-03 1.117237953561024e-02 4.697236659047233e-02
3.724126511870148e-03 3.724126511870086e-03 4.697236659047231e-02
3.724126511868897e-03 3.724126511871068e-03 1.565745553019163e-02
3.724126511868727e-03 1.117237953561023e-02 1.565745553017563e-02
1.117237953561046e-02 1.117237953561024e-02 4.697236659047228e-02
1.117237953561038e-02 3.724126511870083e-03 4.697236659047226e-02
1.117237953561038e-02 3.724126511865757e-03 1.565745553018193e-02
1.117237953561047e-02 1.117237953561023e-02 1.565745553015739e-02
-3.724126511871155e-03 -3.724126511871029e-03 -1.565745553015836e-02
-3.724126511870242e-03 -1.117237953561023e-02 -1.565745553013927e-02
-3.724126511870235e-03 -1.117237953561024e-02 -4.697236659047233e-02
-3.724126511870143e-03 -3.724126511870086e-03 -4.697236659047231e-02
3.724126511868831e-03 -3.724126511871065e-03 -1.565745553016719e-02
3.724126511868481e-03 -1.117237953561023e-02 -1.565745553015117e-02
3.724126511869994e-03 -1.117237953561024e-02 -4.697236659047237e-02
3.724126511870083e-03 -3.724126511870086e-03 -4.697236659047236e-02
-3.724126511871042e-03 3.724126511871081e-03 -1.565745553016712e-02
-3.724126511871155e-03 -3.724126511871029e-03 -1.565745553015836e-02
-3.724126511870143e-03 -3.724126511870086e-03 -4.697236659047231e-02
-3.724126511870057e-03 3.724126511870065e-03 -4.697236659047229e-02
3.724126511867541e-03 3.724126511871092e-03 -1.565745553017018e-02
3.724126511868831e-03 -3.724126511871065e-03 -1.565745553016719e-02
3.724126511870083e-03 -3.724126511870086e-03 -4.697236659047236e-02
3.724126511870170e-03 3.724126511870065e-03 -4.697236659047234e-02
-3.724126511869975e-03 1.117237953561023e-02 -1.565745553015739e-02
-3.724126511871042e-03 3.724126511871081e-03 -1.565745553016712e-02
-3.724126511870057e-03 3.724126511870065e-03 -4.697236659047229e-02
-3.724126511869972e-03 1.117237953561023e-02 -4.697236659047228e-02
3.724126511865925e-03 1.117237953561023e-02 -1.565745553015742e-02
3.724126511867541e-03 3.724126511871092e-03 -1.565745553017018e-02
3.724126511870170e-03 3.724126511870065e-03 -4.697236659047234e-02
3.724126511870257e-03 1.117237953561023e-02 -4.697236659047232e-02
-3.724126511871137e-03 -3.724126511871070e-03 1.565745553019172e-02
-3.724126511870249e-03 -1.117237953561023e-02 1.565745553018200e-02
-3.724126511870242e-03 -1.117237953561023e-02 -1.565745553013927e-02
-3.724126511871155e-03 -3.724126511871029e-03 -1.565745553015836e-02
3.724126511867448e-03 -3.724126511871033e-03 1.565745553019473e-02
3.724126511865658e-03 -1.117237953561023e-02 1.565745553018194e-02
3.724126511868481e-03 -1.117237953561023e-02 -1.565745553015117e-02
3.724126511868831e-03 -3.724126511871065e-03 -1.565745553016719e-02
-3.724126511871031e-03 3.724126511871094e-03 1.565745553018297e-02
-3.724126511871137e-03 -3.724126511871070e-03 1.565745553019172e-02
-3.724126511871155e-03 -3.724126511871029e-03 -1.565745553015836e-02
-3.724126511871042e-03 3.724126511871081e-03 -1.565745553016712e-02
3.724126511868897e-03 3.724126511871068e-03 1.565745553019163e-02
3.724126511867448e-03 -3.724126511871033e-03 1.565745553019473e-02
3.724126511868831e-03 -3.724126511871065e-03 -1.565745553016719e-02
3.724126511867541e-03 3.724126511871092e-03 -1.565745553017018e-02
-3.724126511869989e-03 1.117237953561023e-02 1.565745553016386e-02
-3.724126511871031e-03 3.724126511871094e-03 1.565745553018297e-02
-3.724126511871042e-03 3.724126511871081e-03 -1.565745553016712e-02
-3.724126511869975e-03 1.117237953561023e-02 -1.565745553015739e-02
3.724126511868727e-03 1.117237953561023e-02 1.565745553017563e-02
3.724126511868897e-03 3.724126511871068e-03 1.565745553019163e-02
3.724126511867541e-03 3.724126511871092e-03 -1.565745553017018e-02
3.724126511865925e-03 1.117237953561023e-02 -1.565745553015742e-02
-3.724126511870165e-03 -3.724126511870065e-03 4.697236659047234e-02
-3.724126511870257e-03 -1.117237953561023e-02 4.697236659047232e-02
-3.724126511870249e-03 -1.117237953561023e-02 1.565745553018200e-02
-3.724126511871137e-03 -3.724126511871070e-03 1.565745553019172e-02
3.724126511870061e-03 -3.724126511870065e-03 4.697236659047229e-02
3.724126511869972e-03 -1.117237953561023e-02 4.697236659047228e-02
3.724126511865658e-03 -1.117237953561023e-02 1.565745553018194e-02
3.724126511867448e-03 -3.724126511871033e-03 1.565745553019473e-02
-3.724126511870078e-03 3.724126511870086e-03 4.697236659047236e-02
-3.724126511870165e-03 -3.724126511870065e-03 4.697236659047234e-02
-3.724126511871137e-03 -3.724126511871070e-03 1.565745553019172e-02
-3.724126511871031e-03 3.724126511871094e-03 1.565745553018297e-02
3.724126511870148e-03 3.724126511870086e-03 4.697236659047231e-02
3.724126511870061e-03 -3.724126511870065e-03 4.697236659047229e-02
3.724126511867448e-03 -3.724126511871033e-03 1.565745553019473e-02
3.724126511868897e-03 3.724126511871068e-03 1.565745553019163e-02
-3.724126511869994e-03 1.117237953561024e-02 4.697236659047237e-02
-3.724126511870078e-03 3.724126511870086e-03 4.697236659047236e-02
-3.724126511871031e-03 3.724126511871094e-03 1.565745553018297e-02
-3.724126511869989e-03 1.117237953561023e-02 1.565745553016386e-02
3.724126511870235e-03 1.117237953561024e-02 4.697236659047233e-02
3.724126511870148e-03 3.724126511870086e-03 4.697236659047231e-02
3.724126511868897e-03 3.724126511871068e-03 1.565745553019163e-02
3.724126511868727e-03 1.117237953561023e-02 1.565745553017563e-02
-1.117237953561038e-02 -3.724126511870074e-03 -1.565745553015739e-02
-1.117237953561047e-02 -1.117237953561023e-02 -1.565745553015740e-02
-1.117237953561046e-02 -1.117237953561024e-02 -4.697236659047228e-02
-1.117237953561038e-02 -3.724126511870083e-03 -4.697236659047226e-02
-3.724126511871155e-03 -3.724126511871029e-03 -1.565745553015836e-02
-3.724126511870242e-03 -1.117237953561023e-02 -1.565745553013927e-02
-3.724126511870235e-03 -1.117237953561024e-02 -4.697236659047233e-02
-3.724126511870143e-03 -3.724126511870086e-03 -4.697236659047231e-02
-1.117237953561030e-02 3.724126511865752e-03 -1.565745553015735e-02
-1.117237953561038e-02 -3.724126511870074e-03 -1.565745553015739e-02
-1.117237953561038e-02 -3.724126511870083e-03 -4.697236659047226e-02
-1.117237953561029e-02 3.724126511870072e-03 -4.697236659047225e-02
-3.724126511871042e-03 3.724126511871081e-03 -1.565745553016712e-02
-3.724126511871155e-03 -3.724126511871029e-03 -1.565745553015836e-02
-3.724126511870143e-03 -3.724126511870086e-03 -4.697236659047231e-02
-3.724126511870057e-03 3.724126511870065e-03 -4.697236659047229e-02
-1.117237953561021e-02 1.117237953561023e-02 -1.565745553015735e-02
-1.117237953561030e-02 3.724126511865752e-03 -1.565745553015735e-02
-1.117237953561029e-02 3.724126511870072e-03 -4.697236659047225e-02
-1.117237953561020e-02 1.117237953561023e-02 -4.697236659047223e-02
-3.724126511869975e-03 1.117237953561023e-02 -1.565745553015739e-02
-3.724126511871042e-03 3.724126511871081e-03 -1.565745553016712e-02
-3.724126511870057e-03 3.724126511870065e-03 -4.697236659047229e-02
-3.724126511869972e-03 1.117237953561023e-02 -4.697236659047228e-02
-1.117237953561039e-02 -3.724126511870077e-03 1.565745553016386e-02
-1.117237953561048e-02 -1.117237953561023e-02 1.565745553015748e-02
-1.117237953561047e-02 -1.117237953561023e-02 -1.565745553015740e-02
-1.117237953561038e-02 -3.724126511870074e-03 -1.565745553015739e-02
-3.724126511871137e-03 -3.724126511871070e-03 1.565745553019172e-02
-3.724126511870249e-03 -1.117237953561023e-02 1.565745553018200e-02
-3.724126511870242e-03 -1.117237953561023e-02 -1.565745553013927e-02
-3.724126511871155e-03 -3.724126511871029e-03 -1.565745553015836e-02
-1.117237953561030e-02 3.724126511868566e-03 1.565745553017570e-02
-1.117237953561039e-02 -3.724126511870077e-03 1.565745553016386e-02
-1.117237953561038e-02 -3.724126511870074e-03 -1.565745553015739e-02
-1.117237953561030e-02 3.724126511865752e-03 -1.565745553015735e-02
-3.724126511871031e-03 3.724126511871094e-03 1.565745553018297e-02
-3.724126511871137e-03 -3.724126511871070e-03 1.565745553019172e-02
-3.724126511871155e-03 -3.724126511871029e-03 -1.565745553015836e-02
-3.724126511871042e-03 3.724126511871081e-03 -1.565745553016712e-02
-1.117237953561022e-02 1.117237953561023e-02 1.565745553015753e-02
-1.117237953561030e-02 3.724126511868566e-03 1.565745553017570e-02